 operating system is UNIX !
 hostname is         gplogin1.local

 dscf (gplogin1.local) : TURBOMOLE V6.6( ) 18 Mar 2015 at 17:33:10
 Copyright (C) 2015 TURBOMOLE GmbH, Karlsruhe


    2015-03-28 18:37:13.202 



                             d s c f - program

                   idea & directorship : reinhart ahlrichs
                   program development : marco haeser
                                         michael baer
                           dft version : oliver treutler


                          quantum chemistry group
                          universitaet  karlsruhe
                                  germany




                          References             
                                                 
          TURBOMOLE:                             
              R. Ahlrichs, M. Baer, M. Haeser, H. Horn, and
              C. Koelmel
              Electronic structure calculations on workstation
              computers: the program system TURBOMOLE
              Chem. Phys. Lett. 162: 165 (1989)
          Density Functional:                              
              O. Treutler and R. Ahlrichs                      
              Efficient Molecular Numerical Integration Schemes
              J. Chem. Phys. 102: 346 (1995)                   
          Parallel Version:                                
              Performance of parallel TURBOMOLE for Density    
              Functional Calculations                          
              M. v. Arnim and R. Ahlrichs                      
              J. Comp. Chem. 19: 1746 (1998)                   
                                         



 UHF mode switched on !


              +--------------------------------------------------+
              | Atomic coordinate, charge and isotop information |
              +--------------------------------------------------+

                    atomic coordinates            atom    charge  isotop
          0.00000000    0.00000000   -4.50000000    h      1.000     0
          0.00000000    0.00000000    4.50000000    h      1.000     0
 
       center of nuclear mass  :    0.00000000    0.00000000    0.00000000
       center of nuclear charge:    0.00000000    0.00000000    0.00000000

   *************************************************************************
   h-h/9.0                                                                  
   *************************************************************************



              +--------------------------------------------------+
              |               basis set information              |
              +--------------------------------------------------+

              we will work with the 1s 3p 5d 7f 9g ... basis set
              ...i.e. with spherical basis functions...

   type   atoms  prim   cont   basis
   ---------------------------------------------------------------------------
    h        2     36     33   def2-QZVPPD   [4s4p2d1f|7s4p2d1f]
   ---------------------------------------------------------------------------
   total:    2     72     66
   ---------------------------------------------------------------------------

   total number of primitive shells          :   14
   total number of contracted shells         :   22
   total number of cartesian basis functions :   76
   total number of SCF-basis functions       :   66


 integral neglect threshold       :  0.44E-11
 integral storage threshold THIZE :  0.10E-04
 integral storage threshold THIME :         5


 symmetry group of the molecule :   c1 

 the group has the following generators :
   c1(z)

    1 symmetry operations found

 there are 1 real representations :   a   

 maximum number of shells which are related by symmetry :  1

  missing beta occupation number declaration 

    mo occupation :
   irrep   mo's   occupied
    a       66        1
 
 number of basis functions   :           66
 number of occupied orbitals :            1
 

          ------------------------
          nuclear repulsion energy  :  0.111111111111    
          ------------------------

 
          -----------------
          -S,T+V- integrals
          -----------------

 1e-integrals will be neglected if expon. factor < 0.439732E-12
 
   Difference densities algorithm switched on.
   The maximal number of linear combinations of
   difference densities is          20 .

 automatic virtual orbital shift switched on 
      shift if e(lumo)-e(homo) < 0.10000000    


 DIIS switched on: error vector is FDS-SDF
 Max. Iterations for DIIS is     :   5
 DIIS matrix (see manual) 
    Scaling factor of diagonals  :  1.200
    threshold for scaling factor :  0.000

 scf convergence criterion : increment of total energy < .1000000D-07
                  and increment of one-electron energy < .1000000D-04


 <geterg> : there is no data group $energy 

  MOs are in ASCII format !


 reading orbital data $uhfmo_alpha  from file alpha . 

 orbital characterization : expanded
 

 reading orbital data $uhfmo_beta  from file beta . 

 orbital characterization : expanded
 
 mo provided and orthogonalized by Cholesky decomposition
 mo provided and orthogonalized by Cholesky decomposition

 DSCF restart information will be dumped onto file alpha

 
                                              current damping :  1.000
 ITERATION  ENERGY          1e-ENERGY        2e-ENERGY     NORM[dD(SAO)]  TOL
   1  -.50061001836328    -.61172112947    -.66266436782E-140.000D+00 0.439D-11
          max. resid. norm for Fia-block=  1.540D-02 for orbital      1a    alpha
          max. resid. fock norm         =  3.157D+00 for orbital     52a    beta 
          Delta Eig. =    77.9954609919 eV 
 
                                              current damping :  0.950
 ITERATION  ENERGY          1e-ENERGY        2e-ENERGY     NORM[dD(SAO)]  TOL
   2  -.50074089563434    -.61185200675    0.16315351847E-110.742D-02 0.280D-11
          Norm of current diis error: 0.29482E-01
          max. resid. norm for Fia-block=  1.336D-02 for orbital      1a    alpha
          max. resid. fock norm         =  7.388D-02 for orbital      1a    beta 
          Delta Eig. =    39.9989556664 eV 
 
                                              current damping :  0.800
 ITERATION  ENERGY          1e-ENERGY        2e-ENERGY     NORM[dD(SAO)]  TOL
   3  -.50088276903692    -.61199388016    0.11265398336E-100.181D-02 0.188D-11
          Norm of current diis error: 0.23387E-01
          max. resid. norm for Fia-block=  1.220D-02 for orbital      1a    alpha
          max. resid. fock norm         =  5.555D-02 for orbital      1a    beta 
          Delta Eig. =    21.1095385579 eV 
 
                                              current damping :  0.650
 ITERATION  ENERGY          1e-ENERGY        2e-ENERGY     NORM[dD(SAO)]  TOL
   4  -.50102369410454    -.61213480524    0.24920975006E-100.403D-03 0.139D-11
          Norm of current diis error: 0.15736E-01
          max. resid. norm for Fia-block=  9.477D-03 for orbital      1a    alpha
          max. resid. fock norm         =  3.632D-02 for orbital      1a    beta 
          Delta Eig. =    10.2292507161 eV 
 
                                              current damping :  0.500
 ITERATION  ENERGY          1e-ENERGY        2e-ENERGY     NORM[dD(SAO)]  TOL
   5  -.50111395972623    -.61222507087    0.36777306894E-100.128D-03 0.115D-11
          Norm of current diis error: 0.82620E-02
          max. resid. norm for Fia-block=  5.353D-03 for orbital      1a    alpha
          max. resid. fock norm         =  1.882D-02 for orbital      1a    beta 
 mo-orthogonalization: Cholesky decomposition
          Delta Eig. =     4.4262853750 eV 
 
                                              current damping :  0.350
 ITERATION  ENERGY          1e-ENERGY        2e-ENERGY     NORM[dD(SAO)]  TOL
   6  -.50114479803059    -.61225590918    0.42221007940E-100.241D-04 0.103D-11
          Norm of current diis error: 0.33392E-02
          max. resid. norm for Fia-block=  2.253D-03 for orbital      1a    alpha
          max. resid. fock norm         =  7.225D-03 for orbital      1a    beta 
          Delta Eig. =     1.6348350478 eV 
 
                                              current damping :  0.200
 ITERATION  ENERGY          1e-ENERGY        2e-ENERGY     NORM[dD(SAO)]  TOL
   7  -.50115069280550    -.61226180396    0.43640091540E-100.955D-05 0.977D-12
          Norm of current diis error: 0.10322E-02
          max. resid. norm for Fia-block=  7.253D-04 for orbital      1a    alpha
          max. resid. fock norm         =  1.951D-03 for orbital      1a    beta 
          Delta Eig. =     0.4744037372 eV 
 
                                              current damping :  0.250
 ITERATION  ENERGY          1e-ENERGY        2e-ENERGY     NORM[dD(SAO)]  TOL
   8  -.50115134657484    -.61226245773    0.42695270930E-100.209D-05 0.950D-12
          Norm of current diis error: 0.22546E-03
          max. resid. norm for Fia-block=  1.673D-04 for orbital      1a    alpha
          max. resid. fock norm         =  3.135D-04 for orbital      1a    beta 
          Delta Eig. =     0.0749536708 eV 
 
                                              current damping :  0.300
 ITERATION  ENERGY          1e-ENERGY        2e-ENERGY     NORM[dD(SAO)]  TOL
   9  -.50115138166888    -.61226249283    0.46829994743E-100.286D-06 0.938D-12
          Norm of current diis error: 0.59758E-04
          max. resid. norm for Fia-block=  4.689D-05 for orbital      1a    alpha
          max. resid. fock norm         =  5.751D-05 for orbital      1a    beta 
          Delta Eig. =     0.0141435409 eV 

 ENERGY CONVERGED !

 
                                              current damping :  0.350
 ITERATION  ENERGY          1e-ENERGY        2e-ENERGY     NORM[dD(SAO)]  TOL
  10  -.50115138437267    -.61226249552    0.32434489122E-100.121D-01 0.125D-11
          max. resid. norm for Fia-block=  1.096D-05 for orbital      1a    alpha
          max. resid. fock norm         =  1.275D-05 for orbital      1a    beta 
 Density matrix in CAO:
 
 Print from pmat
 
 Lower triangle of alpha RDM in AO basis:
  0.0086792840329559
  0.0196222477995385  0.0443622546795905
  0.0308225789218022  0.0696841213086162  0.1094596475680924
  0.0154299951212707  0.0348843506751937  0.0547962528455721  0.0274313812681335
  0.0086792840329553  0.0196222477995370  0.0308225789217999  0.0154299951212695  0.0086792840329546
  0.0196222477995376  0.0443622546795886  0.0696841213086131  0.0348843506751922  0.0196222477995362  0.0443622546795866
  0.0308225789218004  0.0696841213086122  0.1094596475680861  0.0547962528455690  0.0308225789217981  0.0696841213086091  0.1094596475680798
  0.0154299951212700  0.0348843506751921  0.0547962528455696  0.0274313812681323  0.0154299951212688  0.0348843506751906  0.0547962528455665  0.0274313812681310
  0.0000000000000000  0.0000000000000001  0.0000000000000001  0.0000000000000001  0.0000000000000000  0.0000000000000001  0.0000000000000001  0.0000000000000001  0.0000000000000000
  0.0000000000000000  0.0000000000000001  0.0000000000000001  0.0000000000000000  0.0000000000000000  0.0000000000000001  0.0000000000000001  0.0000000000000000  0.0000000000000000  0.0000000000000000
  0.0000208274682202  0.0000470870340113  0.0000739641980284  0.0000370269865355  0.0000208274682202  0.0000470870340113  0.0000739641980284  0.0000370269865355  0.0000000000000000  0.0000000000000000  0.0000000499791723
 -0.0000000000000000 -0.0000000000000001 -0.0000000000000002 -0.0000000000000001 -0.0000000000000000 -0.0000000000000001 -0.0000000000000002 -0.0000000000000001 -0.0000000000000000 -0.0000000000000000 -0.0000000000000000  0.0000000000000000
 -0.0000000000000001 -0.0000000000000001 -0.0000000000000002 -0.0000000000000001 -0.0000000000000001 -0.0000000000000001 -0.0000000000000002 -0.0000000000000001 -0.0000000000000000 -0.0000000000000000 -0.0000000000000000  0.0000000000000000  0.0000000000000000
  0.0000515919546180  0.0001166398189220  0.0001832175427034  0.0000917199627331  0.0000515919546180  0.0001166398189220  0.0001832175427034  0.0000917199627331  0.0000000000000000  0.0000000000000000  0.0000001238039671 -0.0000000000000000 -0.0000000000000000  0.0000003066761926
  0.0000000000000001  0.0000000000000002  0.0000000000000003  0.0000000000000002  0.0000000000000001  0.0000000000000002  0.0000000000000003  0.0000000000000002  0.0000000000000000  0.0000000000000000  0.0000000000000000 -0.0000000000000000 -0.0000000000000000  0.0000000000000000  0.0000000000000000
 -0.0000000000000000 -0.0000000000000000 -0.0000000000000000 -0.0000000000000000 -0.0000000000000000 -0.0000000000000000 -0.0000000000000000 -0.0000000000000000 -0.0000000000000000 -0.0000000000000000 -0.0000000000000000  0.0000000000000000  0.0000000000000000 -0.0000000000000000 -0.0000000000000000  0.0000000000000000
  0.0006025110461357  0.0013621654740579  0.0021396861999517  0.0010711416364629  0.0006025110461357  0.0013621654740579  0.0021396861999516  0.0010711416364628  0.0000000000000000  0.0000000000000000  0.0000014458312020 -0.0000000000000000 -0.0000000000000000  0.0000035814846514  0.0000000000000000 -0.0000000000000000  0.0000418259800390
 -0.0000000000000000 -0.0000000000000001 -0.0000000000000001 -0.0000000000000001 -0.0000000000000000 -0.0000000000000001 -0.0000000000000001 -0.0000000000000001 -0.0000000000000000 -0.0000000000000000 -0.0000000000000000  0.0000000000000000  0.0000000000000000 -0.0000000000000000 -0.0000000000000000  0.0000000000000000 -0.0000000000000000  0.0000000000000000
 -0.0000000000000002 -0.0000000000000004 -0.0000000000000006 -0.0000000000000003 -0.0000000000000002 -0.0000000000000004 -0.0000000000000006 -0.0000000000000003 -0.0000000000000000 -0.0000000000000000 -0.0000000000000000  0.0000000000000000  0.0000000000000000 -0.0000000000000000 -0.0000000000000000  0.0000000000000000 -0.0000000000000000  0.0000000000000000  0.0000000000000000
  0.0016383390006304  0.0037039799282925  0.0058182026254532  0.0029126322736676  0.0016383390006303  0.0037039799282924  0.0058182026254529  0.0029126322736675  0.0000000000000000  0.0000000000000000  0.0000039314825209 -0.0000000000000000 -0.0000000000000000  0.0000097387193516  0.0000000000000000 -0.0000000000000000  0.0001137325776466 -0.0000000000000000 -0.0000000000000000  0.0003092599194582
 -0.0000000000000001 -0.0000000000000001 -0.0000000000000002 -0.0000000000000001 -0.0000000000000001 -0.0000000000000001 -0.0000000000000002 -0.0000000000000001 -0.0000000000000000 -0.0000000000000000 -0.0000000000000000  0.0000000000000000  0.0000000000000000 -0.0000000000000000 -0.0000000000000000  0.0000000000000000 -0.0000000000000000  0.0000000000000000  0.0000000000000000 -0.0000000000000000  0.0000000000000000
  0.0000000000000000  0.0000000000000001  0.0000000000000001  0.0000000000000000  0.0000000000000000  0.0000000000000001  0.0000000000000001  0.0000000000000000  0.0000000000000000  0.0000000000000000  0.0000000000000000 -0.0000000000000000 -0.0000000000000000  0.0000000000000000  0.0000000000000000 -0.0000000000000000  0.0000000000000000 -0.0000000000000000 -0.0000000000000000  0.0000000000000000 -0.0000000000000000  0.0000000000000000
 -0.0000208274682201 -0.0000470870340112 -0.0000739641980282 -0.0000370269865354 -0.0000208274682201 -0.0000470870340112 -0.0000739641980282 -0.0000370269865354 -0.0000000000000000 -0.0000000000000000 -0.0000000499791723  0.0000000000000000  0.0000000000000000 -0.0000001238039671 -0.0000000000000000  0.0000000000000000 -0.0000014458312020  0.0000000000000000  0.0000000000000000 -0.0000039314825209  0.0000000000000000 -0.0000000000000000  0.0000000499791723
  0.0000000000000001  0.0000000000000002  0.0000000000000003  0.0000000000000002  0.0000000000000001  0.0000000000000002  0.0000000000000003  0.0000000000000002  0.0000000000000000  0.0000000000000000  0.0000000000000000 -0.0000000000000000 -0.0000000000000000  0.0000000000000000  0.0000000000000000 -0.0000000000000000  0.0000000000000000 -0.0000000000000000 -0.0000000000000000  0.0000000000000000 -0.0000000000000000  0.0000000000000000 -0.0000000000000000  0.0000000000000000
 -0.0000000000000001 -0.0000000000000002 -0.0000000000000003 -0.0000000000000001 -0.0000000000000001 -0.0000000000000002 -0.0000000000000003 -0.0000000000000001 -0.0000000000000000 -0.0000000000000000 -0.0000000000000000  0.0000000000000000  0.0000000000000000 -0.0000000000000000 -0.0000000000000000  0.0000000000000000 -0.0000000000000000  0.0000000000000000  0.0000000000000000 -0.0000000000000000  0.0000000000000000 -0.0000000000000000  0.0000000000000000 -0.0000000000000000  0.0000000000000000
 -0.0000515919546182 -0.0001166398189225 -0.0001832175427041 -0.0000917199627334 -0.0000515919546182 -0.0001166398189225 -0.0001832175427041 -0.0000917199627334 -0.0000000000000000 -0.0000000000000000 -0.0000001238039671  0.0000000000000000  0.0000000000000000 -0.0000003066761926 -0.0000000000000000  0.0000000000000000 -0.0000035814846514  0.0000000000000000  0.0000000000000000 -0.0000097387193516  0.0000000000000000 -0.0000000000000000  0.0000001238039671 -0.0000000000000000  0.0000000000000000  0.0000003066761926
  0.0000000000000000  0.0000000000000001  0.0000000000000001  0.0000000000000001  0.0000000000000000  0.0000000000000001  0.0000000000000001  0.0000000000000001  0.0000000000000000  0.0000000000000000  0.0000000000000000 -0.0000000000000000 -0.0000000000000000  0.0000000000000000  0.0000000000000000 -0.0000000000000000  0.0000000000000000 -0.0000000000000000 -0.0000000000000000  0.0000000000000000 -0.0000000000000000  0.0000000000000000 -0.0000000000000000  0.0000000000000000 -0.0000000000000000 -0.0000000000000000  0.0000000000000000
  0.0000000000000000  0.0000000000000001  0.0000000000000001  0.0000000000000000  0.0000000000000000  0.0000000000000001  0.0000000000000001  0.0000000000000000  0.0000000000000000  0.0000000000000000  0.0000000000000000 -0.0000000000000000 -0.0000000000000000  0.0000000000000000  0.0000000000000000 -0.0000000000000000  0.0000000000000000 -0.0000000000000000 -0.0000000000000000  0.0000000000000000 -0.0000000000000000  0.0000000000000000 -0.0000000000000000  0.0000000000000000 -0.0000000000000000 -0.0000000000000000  0.0000000000000000  0.0000000000000000
 -0.0006025110461355 -0.0013621654740574 -0.0021396861999509 -0.0010711416364625 -0.0006025110461355 -0.0013621654740574 -0.0021396861999508 -0.0010711416364624 -0.0000000000000000 -0.0000000000000000 -0.0000014458312020  0.0000000000000000  0.0000000000000000 -0.0000035814846514 -0.0000000000000000  0.0000000000000000 -0.0000418259800390  0.0000000000000000  0.0000000000000000 -0.0001137325776465  0.0000000000000000 -0.0000000000000000  0.0000014458312020 -0.0000000000000000  0.0000000000000000  0.0000035814846514 -0.0000000000000000 -0.0000000000000000  0.0000418259800390
  0.0000000000000002  0.0000000000000004  0.0000000000000006  0.0000000000000003  0.0000000000000002  0.0000000000000004  0.0000000000000006  0.0000000000000003  0.0000000000000000  0.0000000000000000  0.0000000000000000 -0.0000000000000000 -0.0000000000000000  0.0000000000000000  0.0000000000000000 -0.0000000000000000  0.0000000000000000 -0.0000000000000000 -0.0000000000000000  0.0000000000000000 -0.0000000000000000  0.0000000000000000 -0.0000000000000000  0.0000000000000000 -0.0000000000000000 -0.0000000000000000  0.0000000000000000  0.0000000000000000 -0.0000000000000000  0.0000000000000000
 -0.0000000000000000 -0.0000000000000001 -0.0000000000000001 -0.0000000000000000 -0.0000000000000000 -0.0000000000000001 -0.0000000000000001 -0.0000000000000000 -0.0000000000000000 -0.0000000000000000 -0.0000000000000000  0.0000000000000000  0.0000000000000000 -0.0000000000000000 -0.0000000000000000  0.0000000000000000 -0.0000000000000000  0.0000000000000000  0.0000000000000000 -0.0000000000000000  0.0000000000000000 -0.0000000000000000  0.0000000000000000 -0.0000000000000000  0.0000000000000000  0.0000000000000000 -0.0000000000000000 -0.0000000000000000  0.0000000000000000 -0.0000000000000000  0.0000000000000000
 -0.0016383390006306 -0.0037039799282929 -0.0058182026254538 -0.0029126322736679 -0.0016383390006305 -0.0037039799282928 -0.0058182026254535 -0.0029126322736678 -0.0000000000000000 -0.0000000000000000 -0.0000039314825209  0.0000000000000000  0.0000000000000000 -0.0000097387193516 -0.0000000000000000  0.0000000000000000 -0.0001137325776466  0.0000000000000000  0.0000000000000000 -0.0003092599194582  0.0000000000000000 -0.0000000000000000  0.0000039314825209 -0.0000000000000000  0.0000000000000000  0.0000097387193516 -0.0000000000000000 -0.0000000000000000  0.0001137325776465 -0.0000000000000000  0.0000000000000000  0.0003092599194583
  0.0000036965194310  0.0000083571432846  0.0000131273802616  0.0000065716568982  0.0000036965194310  0.0000083571432846  0.0000131273802616  0.0000065716568982  0.0000000000000000  0.0000000000000000  0.0000000088704484 -0.0000000000000000 -0.0000000000000000  0.0000000219730870  0.0000000000000000 -0.0000000000000000  0.0000002566103127 -0.0000000000000000 -0.0000000000000000  0.0000006977709138 -0.0000000000000000  0.0000000000000000 -0.0000000088704484  0.0000000000000000 -0.0000000000000000 -0.0000000219730870  0.0000000000000000  0.0000000000000000 -0.0000002566103127  0.0000000000000000 -0.0000000000000000 -0.0000006977709138  0.0000000015743529
  0.0000036965194310  0.0000083571432846  0.0000131273802616  0.0000065716568982  0.0000036965194310  0.0000083571432846  0.0000131273802616  0.0000065716568982  0.0000000000000000  0.0000000000000000  0.0000000088704484 -0.0000000000000000 -0.0000000000000000  0.0000000219730870  0.0000000000000000 -0.0000000000000000  0.0000002566103127 -0.0000000000000000 -0.0000000000000000  0.0000006977709138 -0.0000000000000000  0.0000000000000000 -0.0000000088704484  0.0000000000000000 -0.0000000000000000 -0.0000000219730870  0.0000000000000000  0.0000000000000000 -0.0000002566103127  0.0000000000000000 -0.0000000000000000 -0.0000006977709138  0.0000000015743529  0.0000000015743529
 -0.0000073930388621 -0.0000167142865693 -0.0000262547605231 -0.0000131433137964 -0.0000073930388621 -0.0000167142865693 -0.0000262547605231 -0.0000131433137964 -0.0000000000000000 -0.0000000000000000 -0.0000000177408968  0.0000000000000000  0.0000000000000000 -0.0000000439461739 -0.0000000000000000  0.0000000000000000 -0.0000005132206253  0.0000000000000000  0.0000000000000000 -0.0000013955418275  0.0000000000000000 -0.0000000000000000  0.0000000177408968 -0.0000000000000000  0.0000000000000000  0.0000000439461739 -0.0000000000000000 -0.0000000000000000  0.0000005132206253 -0.0000000000000000  0.0000000000000000  0.0000013955418275 -0.0000000031487058 -0.0000000031487058  0.0000000062974116
  0.0000000000000000  0.0000000000000000  0.0000000000000000  0.0000000000000000  0.0000000000000000  0.0000000000000000  0.0000000000000000  0.0000000000000000  0.0000000000000000  0.0000000000000000  0.0000000000000000 -0.0000000000000000 -0.0000000000000000  0.0000000000000000  0.0000000000000000 -0.0000000000000000  0.0000000000000000 -0.0000000000000000 -0.0000000000000000  0.0000000000000000 -0.0000000000000000  0.0000000000000000 -0.0000000000000000  0.0000000000000000 -0.0000000000000000 -0.0000000000000000  0.0000000000000000  0.0000000000000000 -0.0000000000000000  0.0000000000000000 -0.0000000000000000 -0.0000000000000000  0.0000000000000000  0.0000000000000000 -0.0000000000000000  0.0000000000000000
 -0.0000000000000000 -0.0000000000000000 -0.0000000000000000 -0.0000000000000000 -0.0000000000000000 -0.0000000000000000 -0.0000000000000000 -0.0000000000000000 -0.0000000000000000 -0.0000000000000000 -0.0000000000000000  0.0000000000000000  0.0000000000000000 -0.0000000000000000 -0.0000000000000000  0.0000000000000000 -0.0000000000000000  0.0000000000000000  0.0000000000000000 -0.0000000000000000  0.0000000000000000 -0.0000000000000000  0.0000000000000000 -0.0000000000000000  0.0000000000000000  0.0000000000000000 -0.0000000000000000 -0.0000000000000000  0.0000000000000000 -0.0000000000000000  0.0000000000000000  0.0000000000000000 -0.0000000000000000 -0.0000000000000000  0.0000000000000000 -0.0000000000000000  0.0000000000000000
 -0.0000000000000000 -0.0000000000000000 -0.0000000000000001 -0.0000000000000000 -0.0000000000000000 -0.0000000000000000 -0.0000000000000001 -0.0000000000000000 -0.0000000000000000 -0.0000000000000000 -0.0000000000000000  0.0000000000000000  0.0000000000000000 -0.0000000000000000 -0.0000000000000000  0.0000000000000000 -0.0000000000000000  0.0000000000000000  0.0000000000000000 -0.0000000000000000  0.0000000000000000 -0.0000000000000000  0.0000000000000000 -0.0000000000000000  0.0000000000000000  0.0000000000000000 -0.0000000000000000 -0.0000000000000000  0.0000000000000000 -0.0000000000000000  0.0000000000000000  0.0000000000000000 -0.0000000000000000 -0.0000000000000000  0.0000000000000000 -0.0000000000000000  0.0000000000000000  0.0000000000000000
 -0.0000197383896465 -0.0000446248298058 -0.0000700965736756 -0.0000350908271685 -0.0000197383896465 -0.0000446248298058 -0.0000700965736756 -0.0000350908271685 -0.0000000000000000 -0.0000000000000000 -0.0000000473657368  0.0000000000000000  0.0000000000000000 -0.0000001173301967 -0.0000000000000000  0.0000000000000000 -0.0000013702279762  0.0000000000000000  0.0000000000000000 -0.0000037259033631  0.0000000000000000 -0.0000000000000000  0.0000000473657368 -0.0000000000000000  0.0000000000000000  0.0000001173301967 -0.0000000000000000 -0.0000000000000000  0.0000013702279762 -0.0000000000000000  0.0000000000000000  0.0000037259033631 -0.0000000084066083 -0.0000000084066083  0.0000000168132165 -0.0000000000000000  0.0000000000000000  0.0000000000000000  0.0000000448889591
 -0.0000197383896465 -0.0000446248298058 -0.0000700965736756 -0.0000350908271685 -0.0000197383896465 -0.0000446248298058 -0.0000700965736756 -0.0000350908271685 -0.0000000000000000 -0.0000000000000000 -0.0000000473657368  0.0000000000000000  0.0000000000000000 -0.0000001173301967 -0.0000000000000000  0.0000000000000000 -0.0000013702279762  0.0000000000000000  0.0000000000000000 -0.0000037259033631  0.0000000000000000 -0.0000000000000000  0.0000000473657368 -0.0000000000000000  0.0000000000000000  0.0000001173301967 -0.0000000000000000 -0.0000000000000000  0.0000013702279762 -0.0000000000000000  0.0000000000000000  0.0000037259033631 -0.0000000084066083 -0.0000000084066083  0.0000000168132165 -0.0000000000000000  0.0000000000000000  0.0000000000000000  0.0000000448889591  0.0000000448889591
  0.0000394767792929  0.0000892496596116  0.0001401931473512  0.0000701816543370  0.0000394767792929  0.0000892496596116  0.0001401931473512  0.0000701816543370  0.0000000000000000  0.0000000000000000  0.0000000947314736 -0.0000000000000000 -0.0000000000000000  0.0000002346603934  0.0000000000000000 -0.0000000000000000  0.0000027404559523 -0.0000000000000000 -0.0000000000000000  0.0000074518067261 -0.0000000000000000  0.0000000000000000 -0.0000000947314736  0.0000000000000000 -0.0000000000000000 -0.0000002346603934  0.0000000000000000  0.0000000000000000 -0.0000027404559523  0.0000000000000000 -0.0000000000000000 -0.0000074518067261  0.0000000168132165  0.0000000168132165 -0.0000000336264331  0.0000000000000000 -0.0000000000000000 -0.0000000000000000 -0.0000000897779182 -0.0000000897779182  0.0000001795558363
 -0.0000000000000000 -0.0000000000000001 -0.0000000000000001 -0.0000000000000001 -0.0000000000000000 -0.0000000000000001 -0.0000000000000001 -0.0000000000000001 -0.0000000000000000 -0.0000000000000000 -0.0000000000000000  0.0000000000000000  0.0000000000000000 -0.0000000000000000 -0.0000000000000000  0.0000000000000000 -0.0000000000000000  0.0000000000000000  0.0000000000000000 -0.0000000000000000  0.0000000000000000 -0.0000000000000000  0.0000000000000000 -0.0000000000000000  0.0000000000000000  0.0000000000000000 -0.0000000000000000 -0.0000000000000000  0.0000000000000000 -0.0000000000000000  0.0000000000000000  0.0000000000000000 -0.0000000000000000 -0.0000000000000000  0.0000000000000000 -0.0000000000000000  0.0000000000000000  0.0000000000000000  0.0000000000000000  0.0000000000000000 -0.0000000000000000  0.0000000000000000
  0.0000000000000000  0.0000000000000000  0.0000000000000000  0.0000000000000000  0.0000000000000000  0.0000000000000000  0.0000000000000000  0.0000000000000000  0.0000000000000000  0.0000000000000000  0.0000000000000000 -0.0000000000000000 -0.0000000000000000  0.0000000000000000  0.0000000000000000 -0.0000000000000000  0.0000000000000000 -0.0000000000000000 -0.0000000000000000  0.0000000000000000 -0.0000000000000000  0.0000000000000000 -0.0000000000000000  0.0000000000000000 -0.0000000000000000 -0.0000000000000000  0.0000000000000000  0.0000000000000000 -0.0000000000000000  0.0000000000000000 -0.0000000000000000 -0.0000000000000000  0.0000000000000000  0.0000000000000000 -0.0000000000000000  0.0000000000000000 -0.0000000000000000 -0.0000000000000000 -0.0000000000000000 -0.0000000000000000  0.0000000000000000 -0.0000000000000000  0.0000000000000000
  0.0000000000000000  0.0000000000000000  0.0000000000000000  0.0000000000000000  0.0000000000000000  0.0000000000000000  0.0000000000000000  0.0000000000000000  0.0000000000000000  0.0000000000000000  0.0000000000000000 -0.0000000000000000 -0.0000000000000000  0.0000000000000000  0.0000000000000000 -0.0000000000000000  0.0000000000000000 -0.0000000000000000 -0.0000000000000000  0.0000000000000000 -0.0000000000000000  0.0000000000000000 -0.0000000000000000  0.0000000000000000 -0.0000000000000000 -0.0000000000000000  0.0000000000000000  0.0000000000000000 -0.0000000000000000  0.0000000000000000 -0.0000000000000000 -0.0000000000000000  0.0000000000000000  0.0000000000000000 -0.0000000000000000  0.0000000000000000 -0.0000000000000000 -0.0000000000000000 -0.0000000000000000 -0.0000000000000000  0.0000000000000000 -0.0000000000000000  0.0000000000000000  0.0000000000000000
  0.0000036965194310  0.0000083571432846  0.0000131273802616  0.0000065716568982  0.0000036965194310  0.0000083571432846  0.0000131273802616  0.0000065716568982  0.0000000000000000  0.0000000000000000  0.0000000088704484 -0.0000000000000000 -0.0000000000000000  0.0000000219730870  0.0000000000000000 -0.0000000000000000  0.0000002566103127 -0.0000000000000000 -0.0000000000000000  0.0000006977709138 -0.0000000000000000  0.0000000000000000 -0.0000000088704484  0.0000000000000000 -0.0000000000000000 -0.0000000219730870  0.0000000000000000  0.0000000000000000 -0.0000002566103127  0.0000000000000000 -0.0000000000000000 -0.0000006977709138  0.0000000015743529  0.0000000015743529 -0.0000000031487058  0.0000000000000000 -0.0000000000000000 -0.0000000000000000 -0.0000000084066083 -0.0000000084066083  0.0000000168132165 -0.0000000000000000  0.0000000000000000  0.0000000000000000  0.0000000015743529
  0.0000036965194310  0.0000083571432846  0.0000131273802616  0.0000065716568982  0.0000036965194310  0.0000083571432846  0.0000131273802615  0.0000065716568982  0.0000000000000000  0.0000000000000000  0.0000000088704484 -0.0000000000000000 -0.0000000000000000  0.0000000219730870  0.0000000000000000 -0.0000000000000000  0.0000002566103127 -0.0000000000000000 -0.0000000000000000  0.0000006977709138 -0.0000000000000000  0.0000000000000000 -0.0000000088704484  0.0000000000000000 -0.0000000000000000 -0.0000000219730870  0.0000000000000000  0.0000000000000000 -0.0000002566103127  0.0000000000000000 -0.0000000000000000 -0.0000006977709138  0.0000000015743529  0.0000000015743529 -0.0000000031487058  0.0000000000000000 -0.0000000000000000 -0.0000000000000000 -0.0000000084066083 -0.0000000084066083  0.0000000168132165 -0.0000000000000000  0.0000000000000000  0.0000000000000000  0.0000000015743529  0.0000000015743529
 -0.0000073930388620 -0.0000167142865693 -0.0000262547605231 -0.0000131433137963 -0.0000073930388620 -0.0000167142865692 -0.0000262547605231 -0.0000131433137963 -0.0000000000000000 -0.0000000000000000 -0.0000000177408968  0.0000000000000000  0.0000000000000000 -0.0000000439461739 -0.0000000000000000  0.0000000000000000 -0.0000005132206253  0.0000000000000000  0.0000000000000000 -0.0000013955418275  0.0000000000000000 -0.0000000000000000  0.0000000177408968 -0.0000000000000000  0.0000000000000000  0.0000000439461739 -0.0000000000000000 -0.0000000000000000  0.0000005132206253 -0.0000000000000000  0.0000000000000000  0.0000013955418275 -0.0000000031487058 -0.0000000031487058  0.0000000062974116 -0.0000000000000000  0.0000000000000000  0.0000000000000000  0.0000000168132165  0.0000000168132165 -0.0000000336264331  0.0000000000000000 -0.0000000000000000 -0.0000000000000000 -0.0000000031487058 -0.0000000031487058  0.0000000062974116
 -0.0000000000000000 -0.0000000000000000 -0.0000000000000000 -0.0000000000000000 -0.0000000000000000 -0.0000000000000000 -0.0000000000000000 -0.0000000000000000 -0.0000000000000000 -0.0000000000000000 -0.0000000000000000  0.0000000000000000  0.0000000000000000 -0.0000000000000000 -0.0000000000000000  0.0000000000000000 -0.0000000000000000  0.0000000000000000  0.0000000000000000 -0.0000000000000000  0.0000000000000000 -0.0000000000000000  0.0000000000000000 -0.0000000000000000  0.0000000000000000  0.0000000000000000 -0.0000000000000000 -0.0000000000000000  0.0000000000000000 -0.0000000000000000  0.0000000000000000  0.0000000000000000 -0.0000000000000000 -0.0000000000000000  0.0000000000000000 -0.0000000000000000  0.0000000000000000  0.0000000000000000  0.0000000000000000  0.0000000000000000 -0.0000000000000000  0.0000000000000000 -0.0000000000000000 -0.0000000000000000 -0.0000000000000000 -0.0000000000000000  0.0000000000000000  0.0000000000000000
 -0.0000000000000000 -0.0000000000000000 -0.0000000000000000 -0.0000000000000000 -0.0000000000000000 -0.0000000000000000 -0.0000000000000000 -0.0000000000000000 -0.0000000000000000 -0.0000000000000000 -0.0000000000000000  0.0000000000000000  0.0000000000000000 -0.0000000000000000 -0.0000000000000000  0.0000000000000000 -0.0000000000000000  0.0000000000000000  0.0000000000000000 -0.0000000000000000  0.0000000000000000 -0.0000000000000000  0.0000000000000000 -0.0000000000000000  0.0000000000000000  0.0000000000000000 -0.0000000000000000 -0.0000000000000000  0.0000000000000000 -0.0000000000000000  0.0000000000000000  0.0000000000000000 -0.0000000000000000 -0.0000000000000000  0.0000000000000000 -0.0000000000000000  0.0000000000000000  0.0000000000000000  0.0000000000000000  0.0000000000000000 -0.0000000000000000  0.0000000000000000 -0.0000000000000000 -0.0000000000000000 -0.0000000000000000 -0.0000000000000000  0.0000000000000000  0.0000000000000000  0.0000000000000000
 -0.0000000000000000 -0.0000000000000000 -0.0000000000000000 -0.0000000000000000 -0.0000000000000000 -0.0000000000000000 -0.0000000000000000 -0.0000000000000000 -0.0000000000000000 -0.0000000000000000 -0.0000000000000000  0.0000000000000000  0.0000000000000000 -0.0000000000000000 -0.0000000000000000  0.0000000000000000 -0.0000000000000000  0.0000000000000000  0.0000000000000000 -0.0000000000000000  0.0000000000000000 -0.0000000000000000  0.0000000000000000 -0.0000000000000000  0.0000000000000000  0.0000000000000000 -0.0000000000000000 -0.0000000000000000  0.0000000000000000 -0.0000000000000000  0.0000000000000000  0.0000000000000000 -0.0000000000000000 -0.0000000000000000  0.0000000000000000 -0.0000000000000000  0.0000000000000000  0.0000000000000000  0.0000000000000000  0.0000000000000000 -0.0000000000000000  0.0000000000000000 -0.0000000000000000 -0.0000000000000000 -0.0000000000000000 -0.0000000000000000  0.0000000000000000  0.0000000000000000  0.0000000000000000  0.0000000000000000
 -0.0000197383896465 -0.0000446248298058 -0.0000700965736756 -0.0000350908271685 -0.0000197383896465 -0.0000446248298058 -0.0000700965736756 -0.0000350908271685 -0.0000000000000000 -0.0000000000000000 -0.0000000473657368  0.0000000000000000  0.0000000000000000 -0.0000001173301967 -0.0000000000000000  0.0000000000000000 -0.0000013702279762  0.0000000000000000  0.0000000000000000 -0.0000037259033631  0.0000000000000000 -0.0000000000000000  0.0000000473657368 -0.0000000000000000  0.0000000000000000  0.0000001173301967 -0.0000000000000000 -0.0000000000000000  0.0000013702279762 -0.0000000000000000  0.0000000000000000  0.0000037259033631 -0.0000000084066083 -0.0000000084066083  0.0000000168132165 -0.0000000000000000  0.0000000000000000  0.0000000000000000  0.0000000448889591  0.0000000448889591 -0.0000000897779182  0.0000000000000000 -0.0000000000000000 -0.0000000000000000 -0.0000000084066083 -0.0000000084066083  0.0000000168132165  0.0000000000000000  0.0000000000000000  0.0000000000000000  0.0000000448889591
 -0.0000197383896465 -0.0000446248298058 -0.0000700965736756 -0.0000350908271685 -0.0000197383896465 -0.0000446248298058 -0.0000700965736756 -0.0000350908271685 -0.0000000000000000 -0.0000000000000000 -0.0000000473657368  0.0000000000000000  0.0000000000000000 -0.0000001173301967 -0.0000000000000000  0.0000000000000000 -0.0000013702279762  0.0000000000000000  0.0000000000000000 -0.0000037259033631  0.0000000000000000 -0.0000000000000000  0.0000000473657368 -0.0000000000000000  0.0000000000000000  0.0000001173301967 -0.0000000000000000 -0.0000000000000000  0.0000013702279762 -0.0000000000000000  0.0000000000000000  0.0000037259033631 -0.0000000084066083 -0.0000000084066083  0.0000000168132165 -0.0000000000000000  0.0000000000000000  0.0000000000000000  0.0000000448889591  0.0000000448889591 -0.0000000897779182  0.0000000000000000 -0.0000000000000000 -0.0000000000000000 -0.0000000084066083 -0.0000000084066083  0.0000000168132165  0.0000000000000000  0.0000000000000000  0.0000000000000000  0.0000000448889591  0.0000000448889591
  0.0000394767792929  0.0000892496596116  0.0001401931473512  0.0000701816543370  0.0000394767792929  0.0000892496596116  0.0001401931473512  0.0000701816543370  0.0000000000000000  0.0000000000000000  0.0000000947314736 -0.0000000000000000 -0.0000000000000000  0.0000002346603934  0.0000000000000000 -0.0000000000000000  0.0000027404559523 -0.0000000000000000 -0.0000000000000000  0.0000074518067261 -0.0000000000000000  0.0000000000000000 -0.0000000947314736  0.0000000000000000 -0.0000000000000000 -0.0000002346603934  0.0000000000000000  0.0000000000000000 -0.0000027404559523  0.0000000000000000 -0.0000000000000000 -0.0000074518067261  0.0000000168132165  0.0000000168132165 -0.0000000336264331  0.0000000000000000 -0.0000000000000000 -0.0000000000000000 -0.0000000897779182 -0.0000000897779182  0.0000001795558363 -0.0000000000000000  0.0000000000000000  0.0000000000000000  0.0000000168132165  0.0000000168132165 -0.0000000336264331 -0.0000000000000000 -0.0000000000000000 -0.0000000000000000 -0.0000000897779182 -0.0000000897779182  0.0000001795558363
  0.0000000000000000  0.0000000000000000  0.0000000000000001  0.0000000000000000  0.0000000000000000  0.0000000000000000  0.0000000000000001  0.0000000000000000  0.0000000000000000  0.0000000000000000  0.0000000000000000 -0.0000000000000000 -0.0000000000000000  0.0000000000000000  0.0000000000000000 -0.0000000000000000  0.0000000000000000 -0.0000000000000000 -0.0000000000000000  0.0000000000000000 -0.0000000000000000  0.0000000000000000 -0.0000000000000000  0.0000000000000000 -0.0000000000000000 -0.0000000000000000  0.0000000000000000  0.0000000000000000 -0.0000000000000000  0.0000000000000000 -0.0000000000000000 -0.0000000000000000  0.0000000000000000  0.0000000000000000 -0.0000000000000000  0.0000000000000000 -0.0000000000000000 -0.0000000000000000 -0.0000000000000000 -0.0000000000000000  0.0000000000000000 -0.0000000000000000  0.0000000000000000  0.0000000000000000  0.0000000000000000  0.0000000000000000 -0.0000000000000000 -0.0000000000000000 -0.0000000000000000 -0.0000000000000000 -0.0000000000000000 -0.0000000000000000  0.0000000000000000  0.0000000000000000
  0.0000000000000000  0.0000000000000000  0.0000000000000000  0.0000000000000000  0.0000000000000000  0.0000000000000000  0.0000000000000000  0.0000000000000000  0.0000000000000000  0.0000000000000000  0.0000000000000000 -0.0000000000000000 -0.0000000000000000  0.0000000000000000  0.0000000000000000 -0.0000000000000000  0.0000000000000000 -0.0000000000000000 -0.0000000000000000  0.0000000000000000 -0.0000000000000000  0.0000000000000000 -0.0000000000000000  0.0000000000000000 -0.0000000000000000 -0.0000000000000000  0.0000000000000000  0.0000000000000000 -0.0000000000000000  0.0000000000000000 -0.0000000000000000 -0.0000000000000000  0.0000000000000000  0.0000000000000000 -0.0000000000000000  0.0000000000000000 -0.0000000000000000 -0.0000000000000000 -0.0000000000000000 -0.0000000000000000  0.0000000000000000 -0.0000000000000000  0.0000000000000000  0.0000000000000000  0.0000000000000000  0.0000000000000000 -0.0000000000000000 -0.0000000000000000 -0.0000000000000000 -0.0000000000000000 -0.0000000000000000 -0.0000000000000000  0.0000000000000000  0.0000000000000000  0.0000000000000000
  0.0000000000000000  0.0000000000000000  0.0000000000000000  0.0000000000000000  0.0000000000000000  0.0000000000000000  0.0000000000000000  0.0000000000000000  0.0000000000000000  0.0000000000000000  0.0000000000000000 -0.0000000000000000 -0.0000000000000000  0.0000000000000000  0.0000000000000000 -0.0000000000000000  0.0000000000000000 -0.0000000000000000 -0.0000000000000000  0.0000000000000000 -0.0000000000000000  0.0000000000000000 -0.0000000000000000  0.0000000000000000 -0.0000000000000000 -0.0000000000000000  0.0000000000000000  0.0000000000000000 -0.0000000000000000  0.0000000000000000 -0.0000000000000000 -0.0000000000000000  0.0000000000000000  0.0000000000000000 -0.0000000000000000  0.0000000000000000 -0.0000000000000000 -0.0000000000000000 -0.0000000000000000 -0.0000000000000000  0.0000000000000000 -0.0000000000000000  0.0000000000000000  0.0000000000000000  0.0000000000000000  0.0000000000000000 -0.0000000000000000 -0.0000000000000000 -0.0000000000000000 -0.0000000000000000 -0.0000000000000000 -0.0000000000000000  0.0000000000000000  0.0000000000000000  0.0000000000000000  0.0000000000000000
 -0.0000000000000000 -0.0000000000000000 -0.0000000000000000 -0.0000000000000000 -0.0000000000000000 -0.0000000000000000 -0.0000000000000000 -0.0000000000000000 -0.0000000000000000 -0.0000000000000000 -0.0000000000000000  0.0000000000000000  0.0000000000000000 -0.0000000000000000 -0.0000000000000000  0.0000000000000000 -0.0000000000000000  0.0000000000000000  0.0000000000000000 -0.0000000000000000  0.0000000000000000 -0.0000000000000000  0.0000000000000000 -0.0000000000000000  0.0000000000000000  0.0000000000000000 -0.0000000000000000 -0.0000000000000000  0.0000000000000000 -0.0000000000000000  0.0000000000000000  0.0000000000000000 -0.0000000000000000 -0.0000000000000000  0.0000000000000000 -0.0000000000000000  0.0000000000000000  0.0000000000000000  0.0000000000000000  0.0000000000000000 -0.0000000000000000  0.0000000000000000 -0.0000000000000000 -0.0000000000000000 -0.0000000000000000 -0.0000000000000000  0.0000000000000000  0.0000000000000000  0.0000000000000000  0.0000000000000000  0.0000000000000000  0.0000000000000000 -0.0000000000000000 -0.0000000000000000 -0.0000000000000000 -0.0000000000000000  0.0000000000000000
 -0.0000000000000000 -0.0000000000000000 -0.0000000000000000 -0.0000000000000000 -0.0000000000000000 -0.0000000000000000 -0.0000000000000000 -0.0000000000000000 -0.0000000000000000 -0.0000000000000000 -0.0000000000000000  0.0000000000000000  0.0000000000000000 -0.0000000000000000 -0.0000000000000000  0.0000000000000000 -0.0000000000000000  0.0000000000000000  0.0000000000000000 -0.0000000000000000  0.0000000000000000 -0.0000000000000000  0.0000000000000000 -0.0000000000000000  0.0000000000000000  0.0000000000000000 -0.0000000000000000 -0.0000000000000000  0.0000000000000000 -0.0000000000000000  0.0000000000000000  0.0000000000000000 -0.0000000000000000 -0.0000000000000000  0.0000000000000000 -0.0000000000000000  0.0000000000000000  0.0000000000000000  0.0000000000000000  0.0000000000000000 -0.0000000000000000  0.0000000000000000 -0.0000000000000000 -0.0000000000000000 -0.0000000000000000 -0.0000000000000000  0.0000000000000000  0.0000000000000000  0.0000000000000000  0.0000000000000000  0.0000000000000000  0.0000000000000000 -0.0000000000000000 -0.0000000000000000 -0.0000000000000000 -0.0000000000000000  0.0000000000000000  0.0000000000000000
  0.0000004923730640  0.0000011131639701  0.0000017485552457  0.0000008753387891  0.0000004923730640  0.0000011131639701  0.0000017485552457  0.0000008753387891  0.0000000000000000  0.0000000000000000  0.0000000011815357 -0.0000000000000000 -0.0000000000000000  0.0000000029267954  0.0000000000000000 -0.0000000000000000  0.0000000341802629 -0.0000000000000000 -0.0000000000000000  0.0000000929424582 -0.0000000000000000  0.0000000000000000 -0.0000000011815357  0.0000000000000000 -0.0000000000000000 -0.0000000029267954  0.0000000000000000  0.0000000000000000 -0.0000000341802629  0.0000000000000000 -0.0000000000000000 -0.0000000929424582  0.0000000002097024  0.0000000002097024 -0.0000000004194048  0.0000000000000000 -0.0000000000000000 -0.0000000000000000 -0.0000000011197527 -0.0000000011197527  0.0000000022395053 -0.0000000000000000  0.0000000000000000  0.0000000000000000  0.0000000002097024  0.0000000002097024 -0.0000000004194048 -0.0000000000000000 -0.0000000000000000 -0.0000000000000000 -0.0000000011197527 -0.0000000011197527  0.0000000022395053  0.0000000000000000  0.0000000000000000  0.0000000000000000 -0.0000000000000000 -0.0000000000000000  0.0000000000279322
  0.0000000000000000  0.0000000000000000  0.0000000000000000  0.0000000000000000  0.0000000000000000  0.0000000000000000  0.0000000000000000  0.0000000000000000  0.0000000000000000  0.0000000000000000  0.0000000000000000 -0.0000000000000000 -0.0000000000000000  0.0000000000000000  0.0000000000000000 -0.0000000000000000  0.0000000000000000 -0.0000000000000000 -0.0000000000000000  0.0000000000000000 -0.0000000000000000  0.0000000000000000 -0.0000000000000000  0.0000000000000000 -0.0000000000000000 -0.0000000000000000  0.0000000000000000  0.0000000000000000 -0.0000000000000000  0.0000000000000000 -0.0000000000000000 -0.0000000000000000  0.0000000000000000  0.0000000000000000 -0.0000000000000000  0.0000000000000000 -0.0000000000000000 -0.0000000000000000 -0.0000000000000000 -0.0000000000000000  0.0000000000000000 -0.0000000000000000  0.0000000000000000  0.0000000000000000  0.0000000000000000  0.0000000000000000 -0.0000000000000000 -0.0000000000000000 -0.0000000000000000 -0.0000000000000000 -0.0000000000000000 -0.0000000000000000  0.0000000000000000  0.0000000000000000  0.0000000000000000  0.0000000000000000 -0.0000000000000000 -0.0000000000000000  0.0000000000000000  0.0000000000000000
 -0.0000007385595960 -0.0000016697459552 -0.0000026228328685 -0.0000013130081836 -0.0000007385595960 -0.0000016697459552 -0.0000026228328685 -0.0000013130081836 -0.0000000000000000 -0.0000000000000000 -0.0000000017723036  0.0000000000000000  0.0000000000000000 -0.0000000043901931 -0.0000000000000000  0.0000000000000000 -0.0000000512703943  0.0000000000000000  0.0000000000000000 -0.0000001394136873  0.0000000000000000 -0.0000000000000000  0.0000000017723036 -0.0000000000000000  0.0000000000000000  0.0000000043901931 -0.0000000000000000 -0.0000000000000000  0.0000000512703943 -0.0000000000000000  0.0000000000000000  0.0000001394136873 -0.0000000003145536 -0.0000000003145536  0.0000000006291072 -0.0000000000000000  0.0000000000000000  0.0000000000000000  0.0000000016796290  0.0000000016796290 -0.0000000033592580  0.0000000000000000 -0.0000000000000000 -0.0000000000000000 -0.0000000003145536 -0.0000000003145536  0.0000000006291072  0.0000000000000000  0.0000000000000000  0.0000000000000000  0.0000000016796290  0.0000000016796290 -0.0000000033592580 -0.0000000000000000 -0.0000000000000000 -0.0000000000000000  0.0000000000000000  0.0000000000000000 -0.0000000000418983 -0.0000000000000000  0.0000000000628474
  0.0000000000000000  0.0000000000000000  0.0000000000000000  0.0000000000000000  0.0000000000000000  0.0000000000000000  0.0000000000000000  0.0000000000000000  0.0000000000000000  0.0000000000000000  0.0000000000000000 -0.0000000000000000 -0.0000000000000000  0.0000000000000000  0.0000000000000000 -0.0000000000000000  0.0000000000000000 -0.0000000000000000 -0.0000000000000000  0.0000000000000000 -0.0000000000000000  0.0000000000000000 -0.0000000000000000  0.0000000000000000 -0.0000000000000000 -0.0000000000000000  0.0000000000000000  0.0000000000000000 -0.0000000000000000  0.0000000000000000 -0.0000000000000000 -0.0000000000000000  0.0000000000000000  0.0000000000000000 -0.0000000000000000  0.0000000000000000 -0.0000000000000000 -0.0000000000000000 -0.0000000000000000 -0.0000000000000000  0.0000000000000000 -0.0000000000000000  0.0000000000000000  0.0000000000000000  0.0000000000000000  0.0000000000000000 -0.0000000000000000 -0.0000000000000000 -0.0000000000000000 -0.0000000000000000 -0.0000000000000000 -0.0000000000000000  0.0000000000000000  0.0000000000000000  0.0000000000000000  0.0000000000000000 -0.0000000000000000 -0.0000000000000000  0.0000000000000000  0.0000000000000000 -0.0000000000000000  0.0000000000000000
 -0.0000007385595960 -0.0000016697459552 -0.0000026228328685 -0.0000013130081836 -0.0000007385595960 -0.0000016697459552 -0.0000026228328685 -0.0000013130081836 -0.0000000000000000 -0.0000000000000000 -0.0000000017723036  0.0000000000000000  0.0000000000000000 -0.0000000043901931 -0.0000000000000000  0.0000000000000000 -0.0000000512703943  0.0000000000000000  0.0000000000000000 -0.0000001394136873  0.0000000000000000 -0.0000000000000000  0.0000000017723036 -0.0000000000000000  0.0000000000000000  0.0000000043901931 -0.0000000000000000 -0.0000000000000000  0.0000000512703943 -0.0000000000000000  0.0000000000000000  0.0000001394136873 -0.0000000003145536 -0.0000000003145536  0.0000000006291072 -0.0000000000000000  0.0000000000000000  0.0000000000000000  0.0000000016796290  0.0000000016796290 -0.0000000033592580  0.0000000000000000 -0.0000000000000000 -0.0000000000000000 -0.0000000003145536 -0.0000000003145536  0.0000000006291072  0.0000000000000000  0.0000000000000000  0.0000000000000000  0.0000000016796290  0.0000000016796290 -0.0000000033592580 -0.0000000000000000 -0.0000000000000000 -0.0000000000000000  0.0000000000000000  0.0000000000000000 -0.0000000000418983 -0.0000000000000000  0.0000000000628474 -0.0000000000000000  0.0000000000628474
 -0.0000000000000000 -0.0000000000000000 -0.0000000000000000 -0.0000000000000000 -0.0000000000000000 -0.0000000000000000 -0.0000000000000000 -0.0000000000000000 -0.0000000000000000 -0.0000000000000000 -0.0000000000000000  0.0000000000000000  0.0000000000000000 -0.0000000000000000 -0.0000000000000000  0.0000000000000000 -0.0000000000000000  0.0000000000000000  0.0000000000000000 -0.0000000000000000  0.0000000000000000 -0.0000000000000000  0.0000000000000000 -0.0000000000000000  0.0000000000000000  0.0000000000000000 -0.0000000000000000 -0.0000000000000000  0.0000000000000000 -0.0000000000000000  0.0000000000000000  0.0000000000000000 -0.0000000000000000 -0.0000000000000000  0.0000000000000000 -0.0000000000000000  0.0000000000000000  0.0000000000000000  0.0000000000000000  0.0000000000000000 -0.0000000000000000  0.0000000000000000 -0.0000000000000000 -0.0000000000000000 -0.0000000000000000 -0.0000000000000000  0.0000000000000000  0.0000000000000000  0.0000000000000000  0.0000000000000000  0.0000000000000000  0.0000000000000000 -0.0000000000000000 -0.0000000000000000 -0.0000000000000000 -0.0000000000000000  0.0000000000000000  0.0000000000000000 -0.0000000000000000 -0.0000000000000000  0.0000000000000000 -0.0000000000000000  0.0000000000000000  0.0000000000000000
  0.0000000000000000  0.0000000000000000  0.0000000000000000  0.0000000000000000  0.0000000000000000  0.0000000000000000  0.0000000000000000  0.0000000000000000  0.0000000000000000  0.0000000000000000  0.0000000000000000 -0.0000000000000000 -0.0000000000000000  0.0000000000000000  0.0000000000000000 -0.0000000000000000  0.0000000000000000 -0.0000000000000000 -0.0000000000000000  0.0000000000000000 -0.0000000000000000  0.0000000000000000 -0.0000000000000000  0.0000000000000000 -0.0000000000000000 -0.0000000000000000  0.0000000000000000  0.0000000000000000 -0.0000000000000000  0.0000000000000000 -0.0000000000000000 -0.0000000000000000  0.0000000000000000  0.0000000000000000 -0.0000000000000000  0.0000000000000000 -0.0000000000000000 -0.0000000000000000 -0.0000000000000000 -0.0000000000000000  0.0000000000000000 -0.0000000000000000  0.0000000000000000  0.0000000000000000  0.0000000000000000  0.0000000000000000 -0.0000000000000000 -0.0000000000000000 -0.0000000000000000 -0.0000000000000000 -0.0000000000000000 -0.0000000000000000  0.0000000000000000  0.0000000000000000  0.0000000000000000  0.0000000000000000 -0.0000000000000000 -0.0000000000000000  0.0000000000000000  0.0000000000000000 -0.0000000000000000  0.0000000000000000 -0.0000000000000000 -0.0000000000000000  0.0000000000000000
  0.0000000000000000  0.0000000000000000  0.0000000000000000  0.0000000000000000  0.0000000000000000  0.0000000000000000  0.0000000000000000  0.0000000000000000  0.0000000000000000  0.0000000000000000  0.0000000000000000 -0.0000000000000000 -0.0000000000000000  0.0000000000000000  0.0000000000000000 -0.0000000000000000  0.0000000000000000 -0.0000000000000000 -0.0000000000000000  0.0000000000000000 -0.0000000000000000  0.0000000000000000 -0.0000000000000000  0.0000000000000000 -0.0000000000000000 -0.0000000000000000  0.0000000000000000  0.0000000000000000 -0.0000000000000000  0.0000000000000000 -0.0000000000000000 -0.0000000000000000  0.0000000000000000  0.0000000000000000 -0.0000000000000000  0.0000000000000000 -0.0000000000000000 -0.0000000000000000 -0.0000000000000000 -0.0000000000000000  0.0000000000000000 -0.0000000000000000  0.0000000000000000  0.0000000000000000  0.0000000000000000  0.0000000000000000 -0.0000000000000000 -0.0000000000000000 -0.0000000000000000 -0.0000000000000000 -0.0000000000000000 -0.0000000000000000  0.0000000000000000  0.0000000000000000  0.0000000000000000  0.0000000000000000 -0.0000000000000000 -0.0000000000000000  0.0000000000000000  0.0000000000000000 -0.0000000000000000  0.0000000000000000 -0.0000000000000000 -0.0000000000000000  0.0000000000000000  0.0000000000000000
  0.0000000000000000  0.0000000000000000  0.0000000000000000  0.0000000000000000  0.0000000000000000  0.0000000000000000  0.0000000000000000  0.0000000000000000  0.0000000000000000  0.0000000000000000  0.0000000000000000 -0.0000000000000000 -0.0000000000000000  0.0000000000000000  0.0000000000000000 -0.0000000000000000  0.0000000000000000 -0.0000000000000000 -0.0000000000000000  0.0000000000000000 -0.0000000000000000  0.0000000000000000 -0.0000000000000000  0.0000000000000000 -0.0000000000000000 -0.0000000000000000  0.0000000000000000  0.0000000000000000 -0.0000000000000000  0.0000000000000000 -0.0000000000000000 -0.0000000000000000  0.0000000000000000  0.0000000000000000 -0.0000000000000000  0.0000000000000000 -0.0000000000000000 -0.0000000000000000 -0.0000000000000000 -0.0000000000000000  0.0000000000000000 -0.0000000000000000  0.0000000000000000  0.0000000000000000  0.0000000000000000  0.0000000000000000 -0.0000000000000000 -0.0000000000000000 -0.0000000000000000 -0.0000000000000000 -0.0000000000000000 -0.0000000000000000  0.0000000000000000  0.0000000000000000  0.0000000000000000  0.0000000000000000 -0.0000000000000000 -0.0000000000000000  0.0000000000000000  0.0000000000000000 -0.0000000000000000  0.0000000000000000 -0.0000000000000000 -0.0000000000000000  0.0000000000000000  0.0000000000000000  0.0000000000000000
  0.0000000000000000  0.0000000000000000  0.0000000000000000  0.0000000000000000  0.0000000000000000  0.0000000000000000  0.0000000000000000  0.0000000000000000  0.0000000000000000  0.0000000000000000  0.0000000000000000 -0.0000000000000000 -0.0000000000000000  0.0000000000000000  0.0000000000000000 -0.0000000000000000  0.0000000000000000 -0.0000000000000000 -0.0000000000000000  0.0000000000000000 -0.0000000000000000  0.0000000000000000 -0.0000000000000000  0.0000000000000000 -0.0000000000000000 -0.0000000000000000  0.0000000000000000  0.0000000000000000 -0.0000000000000000  0.0000000000000000 -0.0000000000000000 -0.0000000000000000  0.0000000000000000  0.0000000000000000 -0.0000000000000000  0.0000000000000000 -0.0000000000000000 -0.0000000000000000 -0.0000000000000000 -0.0000000000000000  0.0000000000000000 -0.0000000000000000  0.0000000000000000  0.0000000000000000  0.0000000000000000  0.0000000000000000 -0.0000000000000000 -0.0000000000000000 -0.0000000000000000 -0.0000000000000000 -0.0000000000000000 -0.0000000000000000  0.0000000000000000  0.0000000000000000  0.0000000000000000  0.0000000000000000 -0.0000000000000000 -0.0000000000000000  0.0000000000000000  0.0000000000000000 -0.0000000000000000  0.0000000000000000 -0.0000000000000000 -0.0000000000000000  0.0000000000000000  0.0000000000000000  0.0000000000000000  0.0000000000000000
 -0.0000004923730640 -0.0000011131639701 -0.0000017485552457 -0.0000008753387891 -0.0000004923730640 -0.0000011131639701 -0.0000017485552457 -0.0000008753387891 -0.0000000000000000 -0.0000000000000000 -0.0000000011815357  0.0000000000000000  0.0000000000000000 -0.0000000029267954 -0.0000000000000000  0.0000000000000000 -0.0000000341802629  0.0000000000000000  0.0000000000000000 -0.0000000929424582  0.0000000000000000 -0.0000000000000000  0.0000000011815357 -0.0000000000000000  0.0000000000000000  0.0000000029267954 -0.0000000000000000 -0.0000000000000000  0.0000000341802629 -0.0000000000000000  0.0000000000000000  0.0000000929424582 -0.0000000002097024 -0.0000000002097024  0.0000000004194048 -0.0000000000000000  0.0000000000000000  0.0000000000000000  0.0000000011197527  0.0000000011197527 -0.0000000022395053  0.0000000000000000 -0.0000000000000000 -0.0000000000000000 -0.0000000002097024 -0.0000000002097024  0.0000000004194048  0.0000000000000000  0.0000000000000000  0.0000000000000000  0.0000000011197527  0.0000000011197527 -0.0000000022395053 -0.0000000000000000 -0.0000000000000000 -0.0000000000000000  0.0000000000000000  0.0000000000000000 -0.0000000000279322 -0.0000000000000000  0.0000000000418983 -0.0000000000000000  0.0000000000418983  0.0000000000000000 -0.0000000000000000 -0.0000000000000000 -0.0000000000000000 -0.0000000000000000  0.0000000000279322
 -0.0000000000000000 -0.0000000000000000 -0.0000000000000000 -0.0000000000000000 -0.0000000000000000 -0.0000000000000000 -0.0000000000000000 -0.0000000000000000 -0.0000000000000000 -0.0000000000000000 -0.0000000000000000  0.0000000000000000  0.0000000000000000 -0.0000000000000000 -0.0000000000000000  0.0000000000000000 -0.0000000000000000  0.0000000000000000  0.0000000000000000 -0.0000000000000000  0.0000000000000000 -0.0000000000000000  0.0000000000000000 -0.0000000000000000  0.0000000000000000  0.0000000000000000 -0.0000000000000000 -0.0000000000000000  0.0000000000000000 -0.0000000000000000  0.0000000000000000  0.0000000000000000 -0.0000000000000000 -0.0000000000000000  0.0000000000000000 -0.0000000000000000  0.0000000000000000  0.0000000000000000  0.0000000000000000  0.0000000000000000 -0.0000000000000000  0.0000000000000000 -0.0000000000000000 -0.0000000000000000 -0.0000000000000000 -0.0000000000000000  0.0000000000000000  0.0000000000000000  0.0000000000000000  0.0000000000000000  0.0000000000000000  0.0000000000000000 -0.0000000000000000 -0.0000000000000000 -0.0000000000000000 -0.0000000000000000  0.0000000000000000  0.0000000000000000 -0.0000000000000000 -0.0000000000000000  0.0000000000000000 -0.0000000000000000  0.0000000000000000  0.0000000000000000 -0.0000000000000000 -0.0000000000000000 -0.0000000000000000 -0.0000000000000000  0.0000000000000000  0.0000000000000000
  0.0000007385595960  0.0000016697459552  0.0000026228328685  0.0000013130081836  0.0000007385595960  0.0000016697459552  0.0000026228328685  0.0000013130081836  0.0000000000000000  0.0000000000000000  0.0000000017723036 -0.0000000000000000 -0.0000000000000000  0.0000000043901931  0.0000000000000000 -0.0000000000000000  0.0000000512703943 -0.0000000000000000 -0.0000000000000000  0.0000001394136873 -0.0000000000000000  0.0000000000000000 -0.0000000017723036  0.0000000000000000 -0.0000000000000000 -0.0000000043901931  0.0000000000000000  0.0000000000000000 -0.0000000512703943  0.0000000000000000 -0.0000000000000000 -0.0000001394136873  0.0000000003145536  0.0000000003145536 -0.0000000006291072  0.0000000000000000 -0.0000000000000000 -0.0000000000000000 -0.0000000016796290 -0.0000000016796290  0.0000000033592580 -0.0000000000000000  0.0000000000000000  0.0000000000000000  0.0000000003145536  0.0000000003145536 -0.0000000006291072 -0.0000000000000000 -0.0000000000000000 -0.0000000000000000 -0.0000000016796290 -0.0000000016796290  0.0000000033592580  0.0000000000000000  0.0000000000000000  0.0000000000000000 -0.0000000000000000 -0.0000000000000000  0.0000000000418983  0.0000000000000000 -0.0000000000628474  0.0000000000000000 -0.0000000000628474 -0.0000000000000000  0.0000000000000000  0.0000000000000000  0.0000000000000000  0.0000000000000000 -0.0000000000418983 -0.0000000000000000  0.0000000000628474
  0.0000000000000000  0.0000000000000000  0.0000000000000000  0.0000000000000000  0.0000000000000000  0.0000000000000000  0.0000000000000000  0.0000000000000000  0.0000000000000000  0.0000000000000000  0.0000000000000000 -0.0000000000000000 -0.0000000000000000  0.0000000000000000  0.0000000000000000 -0.0000000000000000  0.0000000000000000 -0.0000000000000000 -0.0000000000000000  0.0000000000000000 -0.0000000000000000  0.0000000000000000 -0.0000000000000000  0.0000000000000000 -0.0000000000000000 -0.0000000000000000  0.0000000000000000  0.0000000000000000 -0.0000000000000000  0.0000000000000000 -0.0000000000000000 -0.0000000000000000  0.0000000000000000  0.0000000000000000 -0.0000000000000000  0.0000000000000000 -0.0000000000000000 -0.0000000000000000 -0.0000000000000000 -0.0000000000000000  0.0000000000000000 -0.0000000000000000  0.0000000000000000  0.0000000000000000  0.0000000000000000  0.0000000000000000 -0.0000000000000000 -0.0000000000000000 -0.0000000000000000 -0.0000000000000000 -0.0000000000000000 -0.0000000000000000  0.0000000000000000  0.0000000000000000  0.0000000000000000  0.0000000000000000 -0.0000000000000000 -0.0000000000000000  0.0000000000000000  0.0000000000000000 -0.0000000000000000  0.0000000000000000 -0.0000000000000000 -0.0000000000000000  0.0000000000000000  0.0000000000000000  0.0000000000000000  0.0000000000000000 -0.0000000000000000 -0.0000000000000000  0.0000000000000000  0.0000000000000000
  0.0000007385595960  0.0000016697459552  0.0000026228328685  0.0000013130081836  0.0000007385595960  0.0000016697459552  0.0000026228328685  0.0000013130081836  0.0000000000000000  0.0000000000000000  0.0000000017723036 -0.0000000000000000 -0.0000000000000000  0.0000000043901931  0.0000000000000000 -0.0000000000000000  0.0000000512703943 -0.0000000000000000 -0.0000000000000000  0.0000001394136873 -0.0000000000000000  0.0000000000000000 -0.0000000017723036  0.0000000000000000 -0.0000000000000000 -0.0000000043901931  0.0000000000000000  0.0000000000000000 -0.0000000512703943  0.0000000000000000 -0.0000000000000000 -0.0000001394136873  0.0000000003145536  0.0000000003145536 -0.0000000006291072  0.0000000000000000 -0.0000000000000000 -0.0000000000000000 -0.0000000016796290 -0.0000000016796290  0.0000000033592580 -0.0000000000000000  0.0000000000000000  0.0000000000000000  0.0000000003145536  0.0000000003145536 -0.0000000006291072 -0.0000000000000000 -0.0000000000000000 -0.0000000000000000 -0.0000000016796290 -0.0000000016796290  0.0000000033592580  0.0000000000000000  0.0000000000000000  0.0000000000000000 -0.0000000000000000 -0.0000000000000000  0.0000000000418983  0.0000000000000000 -0.0000000000628474  0.0000000000000000 -0.0000000000628474 -0.0000000000000000  0.0000000000000000  0.0000000000000000  0.0000000000000000  0.0000000000000000 -0.0000000000418983 -0.0000000000000000  0.0000000000628474  0.0000000000000000  0.0000000000628474
 -0.0000000000000000 -0.0000000000000000 -0.0000000000000000 -0.0000000000000000 -0.0000000000000000 -0.0000000000000000 -0.0000000000000000 -0.0000000000000000 -0.0000000000000000 -0.0000000000000000 -0.0000000000000000  0.0000000000000000  0.0000000000000000 -0.0000000000000000 -0.0000000000000000  0.0000000000000000 -0.0000000000000000  0.0000000000000000  0.0000000000000000 -0.0000000000000000  0.0000000000000000 -0.0000000000000000  0.0000000000000000 -0.0000000000000000  0.0000000000000000  0.0000000000000000 -0.0000000000000000 -0.0000000000000000  0.0000000000000000 -0.0000000000000000  0.0000000000000000  0.0000000000000000 -0.0000000000000000 -0.0000000000000000  0.0000000000000000 -0.0000000000000000  0.0000000000000000  0.0000000000000000  0.0000000000000000  0.0000000000000000 -0.0000000000000000  0.0000000000000000 -0.0000000000000000 -0.0000000000000000 -0.0000000000000000 -0.0000000000000000  0.0000000000000000  0.0000000000000000  0.0000000000000000  0.0000000000000000  0.0000000000000000  0.0000000000000000 -0.0000000000000000 -0.0000000000000000 -0.0000000000000000 -0.0000000000000000  0.0000000000000000  0.0000000000000000 -0.0000000000000000 -0.0000000000000000  0.0000000000000000 -0.0000000000000000  0.0000000000000000  0.0000000000000000 -0.0000000000000000 -0.0000000000000000 -0.0000000000000000 -0.0000000000000000  0.0000000000000000  0.0000000000000000 -0.0000000000000000 -0.0000000000000000 -0.0000000000000000  0.0000000000000000
  0.0000000000000000  0.0000000000000000  0.0000000000000000  0.0000000000000000  0.0000000000000000  0.0000000000000000  0.0000000000000000  0.0000000000000000  0.0000000000000000  0.0000000000000000  0.0000000000000000 -0.0000000000000000 -0.0000000000000000  0.0000000000000000  0.0000000000000000 -0.0000000000000000  0.0000000000000000 -0.0000000000000000 -0.0000000000000000  0.0000000000000000 -0.0000000000000000  0.0000000000000000 -0.0000000000000000  0.0000000000000000 -0.0000000000000000 -0.0000000000000000  0.0000000000000000  0.0000000000000000 -0.0000000000000000  0.0000000000000000 -0.0000000000000000 -0.0000000000000000  0.0000000000000000  0.0000000000000000 -0.0000000000000000  0.0000000000000000 -0.0000000000000000 -0.0000000000000000 -0.0000000000000000 -0.0000000000000000  0.0000000000000000 -0.0000000000000000  0.0000000000000000  0.0000000000000000  0.0000000000000000  0.0000000000000000 -0.0000000000000000 -0.0000000000000000 -0.0000000000000000 -0.0000000000000000 -0.0000000000000000 -0.0000000000000000  0.0000000000000000  0.0000000000000000  0.0000000000000000  0.0000000000000000 -0.0000000000000000 -0.0000000000000000  0.0000000000000000  0.0000000000000000 -0.0000000000000000  0.0000000000000000 -0.0000000000000000 -0.0000000000000000  0.0000000000000000  0.0000000000000000  0.0000000000000000  0.0000000000000000 -0.0000000000000000 -0.0000000000000000  0.0000000000000000  0.0000000000000000  0.0000000000000000 -0.0000000000000000  0.0000000000000000
  0.0000000000000000  0.0000000000000000  0.0000000000000000  0.0000000000000000  0.0000000000000000  0.0000000000000000  0.0000000000000000  0.0000000000000000  0.0000000000000000  0.0000000000000000  0.0000000000000000 -0.0000000000000000 -0.0000000000000000  0.0000000000000000  0.0000000000000000 -0.0000000000000000  0.0000000000000000 -0.0000000000000000 -0.0000000000000000  0.0000000000000000 -0.0000000000000000  0.0000000000000000 -0.0000000000000000  0.0000000000000000 -0.0000000000000000 -0.0000000000000000  0.0000000000000000  0.0000000000000000 -0.0000000000000000  0.0000000000000000 -0.0000000000000000 -0.0000000000000000  0.0000000000000000  0.0000000000000000 -0.0000000000000000  0.0000000000000000 -0.0000000000000000 -0.0000000000000000 -0.0000000000000000 -0.0000000000000000  0.0000000000000000 -0.0000000000000000  0.0000000000000000  0.0000000000000000  0.0000000000000000  0.0000000000000000 -0.0000000000000000 -0.0000000000000000 -0.0000000000000000 -0.0000000000000000 -0.0000000000000000 -0.0000000000000000  0.0000000000000000  0.0000000000000000  0.0000000000000000  0.0000000000000000 -0.0000000000000000 -0.0000000000000000  0.0000000000000000  0.0000000000000000 -0.0000000000000000  0.0000000000000000 -0.0000000000000000 -0.0000000000000000  0.0000000000000000  0.0000000000000000  0.0000000000000000  0.0000000000000000 -0.0000000000000000 -0.0000000000000000  0.0000000000000000  0.0000000000000000  0.0000000000000000 -0.0000000000000000  0.0000000000000000  0.0000000000000000
 END
 
 Lower triangle of beta RDM in AO basis:
  0.0000000000000000
  0.0000000000000000  0.0000000000000000
  0.0000000000000000  0.0000000000000000  0.0000000000000000
  0.0000000000000000  0.0000000000000000  0.0000000000000000  0.0000000000000000
  0.0000000000000000  0.0000000000000000  0.0000000000000000  0.0000000000000000  0.0000000000000000
  0.0000000000000000  0.0000000000000000  0.0000000000000000  0.0000000000000000  0.0000000000000000  0.0000000000000000
  0.0000000000000000  0.0000000000000000  0.0000000000000000  0.0000000000000000  0.0000000000000000  0.0000000000000000  0.0000000000000000
  0.0000000000000000  0.0000000000000000  0.0000000000000000  0.0000000000000000  0.0000000000000000  0.0000000000000000  0.0000000000000000  0.0000000000000000
  0.0000000000000000  0.0000000000000000  0.0000000000000000  0.0000000000000000  0.0000000000000000  0.0000000000000000  0.0000000000000000  0.0000000000000000  0.0000000000000000
  0.0000000000000000  0.0000000000000000  0.0000000000000000  0.0000000000000000  0.0000000000000000  0.0000000000000000  0.0000000000000000  0.0000000000000000  0.0000000000000000  0.0000000000000000
  0.0000000000000000  0.0000000000000000  0.0000000000000000  0.0000000000000000  0.0000000000000000  0.0000000000000000  0.0000000000000000  0.0000000000000000  0.0000000000000000  0.0000000000000000  0.0000000000000000
  0.0000000000000000  0.0000000000000000  0.0000000000000000  0.0000000000000000  0.0000000000000000  0.0000000000000000  0.0000000000000000  0.0000000000000000  0.0000000000000000  0.0000000000000000  0.0000000000000000  0.0000000000000000
  0.0000000000000000  0.0000000000000000  0.0000000000000000  0.0000000000000000  0.0000000000000000  0.0000000000000000  0.0000000000000000  0.0000000000000000  0.0000000000000000  0.0000000000000000  0.0000000000000000  0.0000000000000000  0.0000000000000000
  0.0000000000000000  0.0000000000000000  0.0000000000000000  0.0000000000000000  0.0000000000000000  0.0000000000000000  0.0000000000000000  0.0000000000000000  0.0000000000000000  0.0000000000000000  0.0000000000000000  0.0000000000000000  0.0000000000000000  0.0000000000000000
  0.0000000000000000  0.0000000000000000  0.0000000000000000  0.0000000000000000  0.0000000000000000  0.0000000000000000  0.0000000000000000  0.0000000000000000  0.0000000000000000  0.0000000000000000  0.0000000000000000  0.0000000000000000  0.0000000000000000  0.0000000000000000  0.0000000000000000
  0.0000000000000000  0.0000000000000000  0.0000000000000000  0.0000000000000000  0.0000000000000000  0.0000000000000000  0.0000000000000000  0.0000000000000000  0.0000000000000000  0.0000000000000000  0.0000000000000000  0.0000000000000000  0.0000000000000000  0.0000000000000000  0.0000000000000000  0.0000000000000000
  0.0000000000000000  0.0000000000000000  0.0000000000000000  0.0000000000000000  0.0000000000000000  0.0000000000000000  0.0000000000000000  0.0000000000000000  0.0000000000000000  0.0000000000000000  0.0000000000000000  0.0000000000000000  0.0000000000000000  0.0000000000000000  0.0000000000000000  0.0000000000000000  0.0000000000000000
  0.0000000000000000  0.0000000000000000  0.0000000000000000  0.0000000000000000  0.0000000000000000  0.0000000000000000  0.0000000000000000  0.0000000000000000  0.0000000000000000  0.0000000000000000  0.0000000000000000  0.0000000000000000  0.0000000000000000  0.0000000000000000  0.0000000000000000  0.0000000000000000  0.0000000000000000  0.0000000000000000
  0.0000000000000000  0.0000000000000000  0.0000000000000000  0.0000000000000000  0.0000000000000000  0.0000000000000000  0.0000000000000000  0.0000000000000000  0.0000000000000000  0.0000000000000000  0.0000000000000000  0.0000000000000000  0.0000000000000000  0.0000000000000000  0.0000000000000000  0.0000000000000000  0.0000000000000000  0.0000000000000000  0.0000000000000000
  0.0000000000000000  0.0000000000000000  0.0000000000000000  0.0000000000000000  0.0000000000000000  0.0000000000000000  0.0000000000000000  0.0000000000000000  0.0000000000000000  0.0000000000000000  0.0000000000000000  0.0000000000000000  0.0000000000000000  0.0000000000000000  0.0000000000000000  0.0000000000000000  0.0000000000000000  0.0000000000000000  0.0000000000000000  0.0000000000000000
  0.0000000000000000  0.0000000000000000  0.0000000000000000  0.0000000000000000  0.0000000000000000  0.0000000000000000  0.0000000000000000  0.0000000000000000  0.0000000000000000  0.0000000000000000  0.0000000000000000  0.0000000000000000  0.0000000000000000  0.0000000000000000  0.0000000000000000  0.0000000000000000  0.0000000000000000  0.0000000000000000  0.0000000000000000  0.0000000000000000  0.0000000000000000
  0.0000000000000000  0.0000000000000000  0.0000000000000000  0.0000000000000000  0.0000000000000000  0.0000000000000000  0.0000000000000000  0.0000000000000000  0.0000000000000000  0.0000000000000000  0.0000000000000000  0.0000000000000000  0.0000000000000000  0.0000000000000000  0.0000000000000000  0.0000000000000000  0.0000000000000000  0.0000000000000000  0.0000000000000000  0.0000000000000000  0.0000000000000000  0.0000000000000000
  0.0000000000000000  0.0000000000000000  0.0000000000000000  0.0000000000000000  0.0000000000000000  0.0000000000000000  0.0000000000000000  0.0000000000000000  0.0000000000000000  0.0000000000000000  0.0000000000000000  0.0000000000000000  0.0000000000000000  0.0000000000000000  0.0000000000000000  0.0000000000000000  0.0000000000000000  0.0000000000000000  0.0000000000000000  0.0000000000000000  0.0000000000000000  0.0000000000000000  0.0000000000000000
  0.0000000000000000  0.0000000000000000  0.0000000000000000  0.0000000000000000  0.0000000000000000  0.0000000000000000  0.0000000000000000  0.0000000000000000  0.0000000000000000  0.0000000000000000  0.0000000000000000  0.0000000000000000  0.0000000000000000  0.0000000000000000  0.0000000000000000  0.0000000000000000  0.0000000000000000  0.0000000000000000  0.0000000000000000  0.0000000000000000  0.0000000000000000  0.0000000000000000  0.0000000000000000  0.0000000000000000
  0.0000000000000000  0.0000000000000000  0.0000000000000000  0.0000000000000000  0.0000000000000000  0.0000000000000000  0.0000000000000000  0.0000000000000000  0.0000000000000000  0.0000000000000000  0.0000000000000000  0.0000000000000000  0.0000000000000000  0.0000000000000000  0.0000000000000000  0.0000000000000000  0.0000000000000000  0.0000000000000000  0.0000000000000000  0.0000000000000000  0.0000000000000000  0.0000000000000000  0.0000000000000000  0.0000000000000000  0.0000000000000000
  0.0000000000000000  0.0000000000000000  0.0000000000000000  0.0000000000000000  0.0000000000000000  0.0000000000000000  0.0000000000000000  0.0000000000000000  0.0000000000000000  0.0000000000000000  0.0000000000000000  0.0000000000000000  0.0000000000000000  0.0000000000000000  0.0000000000000000  0.0000000000000000  0.0000000000000000  0.0000000000000000  0.0000000000000000  0.0000000000000000  0.0000000000000000  0.0000000000000000  0.0000000000000000  0.0000000000000000  0.0000000000000000  0.0000000000000000
  0.0000000000000000  0.0000000000000000  0.0000000000000000  0.0000000000000000  0.0000000000000000  0.0000000000000000  0.0000000000000000  0.0000000000000000  0.0000000000000000  0.0000000000000000  0.0000000000000000  0.0000000000000000  0.0000000000000000  0.0000000000000000  0.0000000000000000  0.0000000000000000  0.0000000000000000  0.0000000000000000  0.0000000000000000  0.0000000000000000  0.0000000000000000  0.0000000000000000  0.0000000000000000  0.0000000000000000  0.0000000000000000  0.0000000000000000  0.0000000000000000
  0.0000000000000000  0.0000000000000000  0.0000000000000000  0.0000000000000000  0.0000000000000000  0.0000000000000000  0.0000000000000000  0.0000000000000000  0.0000000000000000  0.0000000000000000  0.0000000000000000  0.0000000000000000  0.0000000000000000  0.0000000000000000  0.0000000000000000  0.0000000000000000  0.0000000000000000  0.0000000000000000  0.0000000000000000  0.0000000000000000  0.0000000000000000  0.0000000000000000  0.0000000000000000  0.0000000000000000  0.0000000000000000  0.0000000000000000  0.0000000000000000  0.0000000000000000
  0.0000000000000000  0.0000000000000000  0.0000000000000000  0.0000000000000000  0.0000000000000000  0.0000000000000000  0.0000000000000000  0.0000000000000000  0.0000000000000000  0.0000000000000000  0.0000000000000000  0.0000000000000000  0.0000000000000000  0.0000000000000000  0.0000000000000000  0.0000000000000000  0.0000000000000000  0.0000000000000000  0.0000000000000000  0.0000000000000000  0.0000000000000000  0.0000000000000000  0.0000000000000000  0.0000000000000000  0.0000000000000000  0.0000000000000000  0.0000000000000000  0.0000000000000000  0.0000000000000000
  0.0000000000000000  0.0000000000000000  0.0000000000000000  0.0000000000000000  0.0000000000000000  0.0000000000000000  0.0000000000000000  0.0000000000000000  0.0000000000000000  0.0000000000000000  0.0000000000000000  0.0000000000000000  0.0000000000000000  0.0000000000000000  0.0000000000000000  0.0000000000000000  0.0000000000000000  0.0000000000000000  0.0000000000000000  0.0000000000000000  0.0000000000000000  0.0000000000000000  0.0000000000000000  0.0000000000000000  0.0000000000000000  0.0000000000000000  0.0000000000000000  0.0000000000000000  0.0000000000000000  0.0000000000000000
  0.0000000000000000  0.0000000000000000  0.0000000000000000  0.0000000000000000  0.0000000000000000  0.0000000000000000  0.0000000000000000  0.0000000000000000  0.0000000000000000  0.0000000000000000  0.0000000000000000  0.0000000000000000  0.0000000000000000  0.0000000000000000  0.0000000000000000  0.0000000000000000  0.0000000000000000  0.0000000000000000  0.0000000000000000  0.0000000000000000  0.0000000000000000  0.0000000000000000  0.0000000000000000  0.0000000000000000  0.0000000000000000  0.0000000000000000  0.0000000000000000  0.0000000000000000  0.0000000000000000  0.0000000000000000  0.0000000000000000
  0.0000000000000000  0.0000000000000000  0.0000000000000000  0.0000000000000000  0.0000000000000000  0.0000000000000000  0.0000000000000000  0.0000000000000000  0.0000000000000000  0.0000000000000000  0.0000000000000000  0.0000000000000000  0.0000000000000000  0.0000000000000000  0.0000000000000000  0.0000000000000000  0.0000000000000000  0.0000000000000000  0.0000000000000000  0.0000000000000000  0.0000000000000000  0.0000000000000000  0.0000000000000000  0.0000000000000000  0.0000000000000000  0.0000000000000000  0.0000000000000000  0.0000000000000000  0.0000000000000000  0.0000000000000000  0.0000000000000000  0.0000000000000000
[...]
  0.0000000000000000  0.0000000000000000  0.0000000000000000  0.0000000000000000  0.0000000000000000  0.0000000000000000  0.0000000000000000  0.0000000000000000  0.0000000000000000 -0.0000000000000004  0.0000000000000000  0.0000000000000000  0.0000000000000006  0.0000000000000000  0.0000000000000000  0.0000000000000001  0.0000000000000000  0.0000000000000000  0.0000000000000001  0.0000000000000000  0.0000000000000000  0.0000000000000000  0.0000000000000000  0.0000000000000000  0.0000000000000000  0.0000000000000000  0.0000000000000000  0.0000000135805076  0.0000000000000000  0.0000000000000000  0.0002182286557282  0.0000000000000000  0.0000000000000000  0.0000000000000000  0.0000000000000000  0.0000000000000000  0.0000000000000000  0.0000000000000000  0.0000000000000000  0.0000000000000000  0.0000000000000000  0.0000000000000000  0.0000000000000000  0.0000000000000000  0.0000000000000000  0.0000000000000000  0.0000000000000000  0.0000000000000000  0.0000000000000000  0.0000000000000000  0.0000000000000000  0.0000000000000000  0.0000000000000000  0.0000000000000000  0.9999999999999984
  0.0000000000000000  0.0000000000000000  0.0000000000000000  0.0000000000000000  0.0000000000000000  0.0000000000000000  0.0000000000000000  0.0000000000000000  0.0000000000000000  0.0000000000000000  0.0000000000000000  0.0000000000000000  0.0000000000000000  0.0000000000000000  0.0000000000000000  0.0000000000000000  0.0000000000000000  0.0000000000000000  0.0000000000000000  0.0000000000000000  0.0000000000000000  0.0000000000000000  0.0000000000000000  0.0000000000000000  0.0000000000000000  0.0000000000000000  0.0000000000000000  0.0000000000000000  0.0000000000000000  0.0000000000000000  0.0000000000000000  0.0000000000000000  0.0000000000000000  0.0000000000000000  0.0000000000000000  0.0000000000000000  0.0000000000000000  0.0000000000000000  0.0000000000000000  0.0000000000000000  0.0000000000000000  0.0000000000000000  0.0000000000000000  0.0000000000000000  0.0000000000000000  0.0000000000000000  0.0000000000000000  0.0000000000000000  0.0000000000000000  0.0000000000000000  0.0000000000000000  0.0000000000000000  0.0000000000000000  0.0000000000000000  0.0000000000000000  1.0000000000000002
  0.0000000000000000  0.0000000000000000  0.0000000000000000  0.0000000000000000  0.0000000000000000  0.0000000000000000  0.0000000000000000 -0.0000000000000000  0.0000000000000000  0.0000000000000000  0.0000000000000000  0.0000000000000000  0.0000000000000000 -0.0000000000000001  0.0000000000000000  0.0000000000000000 -0.0000000000000001  0.0000000000000000  0.0000000000000000  0.0000000000000000  0.0000000000000000  0.0000000000000000  0.0000000000000000  0.0000000000000000  0.0000000000000000  0.0000000000000000  0.0000000000000000  0.0000000000000000  0.0000000000000000  0.0000000000000000  0.0000000000000000  0.0000000000000000  0.0000000000000000  0.0000000000000000  0.0000000000000000  0.0000000000000000  0.0000000000000000  0.0000000000000000  0.0000000000000000  0.0000000000000000  0.0000000000000000  0.0000000000000000  0.0000000000000000  0.0000000000000000  0.0000000000000000  0.0000000000000000  0.0000000000000000  0.0000000000000000  0.0000000000000000  0.0000000000000000  0.0000000000000000  0.0000000000000000 -0.0000000000000001  0.0000000000000000  0.0000000000000000  0.0000000000000000  0.9999999999999994
  0.0000000000000000  0.0000000000000000  0.0000000000000000  0.0000000000000000  0.0000000000000000  0.0000000000000000  0.0000000000000000  0.0000000000000000 -0.0000000000000001  0.0000000000000000  0.0000000000000000 -0.0000000000000003  0.0000000000000000  0.0000000000000000 -0.0000000000000001  0.0000000000000000  0.0000000000000000 -0.0000000000000001  0.0000000000000000  0.0000000000000000  0.0000000000000000  0.0000000000000000  0.0000000000000000  0.0000000000000000  0.0000000000000000  0.0000000000000000 -0.0000000000000000  0.0000000000000000  0.0000000000000000 -0.0000000000000000  0.0000000000000000  0.0000000000000000  0.0000000000000000  0.0000000000000000  0.0000000000000000  0.0000000000000000  0.0000000000000000  0.0000000000000000  0.0000000000000000  0.0000000000000000  0.0000000000000000  0.0000000000000000  0.0000000000000000  0.0000000000000000  0.0000000000000000  0.0000000000000000  0.0000000000000000  0.0000000000000000  0.0000000000000000  0.0000000000000000  0.0000000000000000  0.0000000000000000  0.0000000000000000 -0.0000000000000004  0.0000000000000000  0.0000000000000000  0.0000000000000000  0.9999999999999994
  0.0000000000000000  0.0000000000000000  0.0000000000000000  0.0000000000000000  0.0000000000000000  0.0000000000000000  0.0000000000000000  0.0000000000000000  0.0000000000000000 -0.0000000000000001  0.0000000000000000  0.0000000000000000 -0.0000000000000002  0.0000000000000000  0.0000000000000000 -0.0000000000000001  0.0000000000000000  0.0000000000000000 -0.0000000000000001  0.0000000000000000  0.0000000000000000  0.0000000000000000  0.0000000000000000  0.0000000000000000  0.0000000000000000  0.0000000000000000  0.0000000000000000 -0.0000000000000000  0.0000000000000000  0.0000000000000000 -0.0000000000000000  0.0000000000000000  0.0000000000000000  0.0000000000000000  0.0000000000000000  0.0000000000000000  0.0000000000000000  0.0000000000000000  0.0000000000000000  0.0000000000000000  0.0000000000000000  0.0000000000000000  0.0000000000000000  0.0000000000000000  0.0000000000000000  0.0000000000000000  0.0000000000000000  0.0000000000000000  0.0000000000000000  0.0000000000000000  0.0000000000000000  0.0000000000000000  0.0000000000000000  0.0000000000000000 -0.0000000000000004  0.0000000000000000  0.0000000000000000  0.0000000000000000  1.0000000000000000
  0.0000000000000000  0.0000000000000000 -0.0000009672741000 -0.0002598013269034  0.0000000000000000  0.0000000000000005  0.0000000000000000  0.0000000000000000  0.0000000000000000  0.0000000000000000  0.0000000000000000  0.0000000000000000  0.0000000000000000  0.0000000000000000  0.0000000000000000  0.0000000000000000 -0.0000002002900423  0.0000000000000000  0.0000000000000000 -0.0008771309670355  0.0000000000000000  0.0000000000000000  0.0000000000000002  0.0000000000000000  0.0000000000000000  0.0000000000000003  0.0000000000000000  0.0000000000000000 -0.0000000000000001  0.0000000000000000  0.0000000000000000  0.0000000000000001  0.0000000000000000  0.0000000000000000  0.0000000000000000  0.0000000000000000  0.0000000000000000  0.0000000000000000  0.0000000000000000  0.0000000000000000  0.0000000000000000  0.0000000000000000  0.0000000000000011  0.0000000000000000  0.0000000000000000  0.0000000000000000  0.0000000000000000  0.0000000000000000  0.0000000000000000  0.0000000000000000  0.0000000000000000  0.0000000000000000  0.0000000000000000  0.0000000000000000  0.0000000000000000  0.0000000000000000  0.0000000000000000  0.0000000000000000  0.0000000000000000  1.0000000000000027
  0.0000000000000000  0.0000000000000000  0.0000000000000000  0.0000000000000000  0.0000000000000000  0.0000000000000000  0.0000000000000000  0.0000000000000000  0.0000000000000000  0.0000000000000000  0.0000000000000000  0.0000000000000000  0.0000000000000000  0.0000000000000000  0.0000000135805076  0.0000000000000000  0.0000000000000000  0.0002182286557282  0.0000000000000000  0.0000000000000000 -0.0000000000000004  0.0000000000000000  0.0000000000000000  0.0000000000000004  0.0000000000000000  0.0000000000000000  0.0000000000000000  0.0000000000000000  0.0000000000000000  0.0000000000000001  0.0000000000000000  0.0000000000000000  0.0000000000000000  0.0000000000000000  0.0000000000000000  0.0000000000000000  0.0000000000000000  0.0000000000000000  0.0000000000000000  0.0000000000000000  0.0000000000000000  0.0000000000000000  0.0000000000000000  0.0000000000000000  0.0000000000000000  0.0000000000000000  0.0000000000000000  0.0000000000000000  0.0000000000000000  0.0000000000000000  0.0000000000000000  0.0000000000000000  0.0000000000000000  0.0000000000000000  0.0000000000000000  0.0000000000000000  0.0000000000000000  0.0000000000000000  0.0000000000000000  0.0000000000000000  0.9999999999999982
  0.0000000000000000  0.0000000000000000  0.0000000000000000  0.0000000000000000  0.0000000000000000  0.0000000000000000  0.0000000000000000  0.0000000000000000  0.0000000000000000  0.0000000000000000  0.0000000000000000  0.0000000000000000  0.0000000000000000  0.0000000000000000  0.0000000000000000  0.0000000135805076  0.0000000000000000  0.0000000000000000  0.0002182286557282  0.0000000000000000  0.0000000000000000 -0.0000000000000004  0.0000000000000000  0.0000000000000000  0.0000000000000006  0.0000000000000000  0.0000000000000000  0.0000000000000001  0.0000000000000000  0.0000000000000000  0.0000000000000001  0.0000000000000000  0.0000000000000000  0.0000000000000000  0.0000000000000000  0.0000000000000000  0.0000000000000000  0.0000000000000000  0.0000000000000000  0.0000000000000000  0.0000000000000000  0.0000000000000000  0.0000000000000000  0.0000000000000000  0.0000000000000000  0.0000000000000000  0.0000000000000000  0.0000000000000000  0.0000000000000000  0.0000000000000000  0.0000000000000000  0.0000000000000000  0.0000000000000000  0.0000000000000000  0.0000000000000000  0.0000000000000000  0.0000000000000000  0.0000000000000000  0.0000000000000000  0.0000000000000000  0.0000000000000000  0.9999999999999984
  0.0000000000000000  0.0000000000000000  0.0000000000000000  0.0000000000000000  0.0000000000000000  0.0000000000000000  0.0000000000000000  0.0000000000000000  0.0000000000000000  0.0000000000000000  0.0000000000000000  0.0000000000000000  0.0000000000000000  0.0000000000000000  0.0000000000000000  0.0000000000000000  0.0000000000000000  0.0000000000000000  0.0000000000000000  0.0000000000000000  0.0000000000000000  0.0000000000000000  0.0000000000000000  0.0000000000000000  0.0000000000000000  0.0000000000000000  0.0000000000000000  0.0000000000000000  0.0000000000000000  0.0000000000000000  0.0000000000000000  0.0000000000000000  0.0000000000000000  0.0000000000000000  0.0000000000000000  0.0000000000000000  0.0000000000000000  0.0000000000000000  0.0000000000000000  0.0000000000000000  0.0000000000000000  0.0000000000000000  0.0000000000000000  0.0000000000000000  0.0000000000000000  0.0000000000000000  0.0000000000000000  0.0000000000000000  0.0000000000000000  0.0000000000000000  0.0000000000000000  0.0000000000000000  0.0000000000000000  0.0000000000000000  0.0000000000000000  0.0000000000000000  0.0000000000000000  0.0000000000000000  0.0000000000000000  0.0000000000000000  0.0000000000000000  0.0000000000000000  1.0000000000000002
  0.0000000000000000  0.0000000000000000  0.0000000000000000  0.0000000000000000  0.0000000000000000  0.0000000000000000  0.0000000000000000  0.0000000000000000  0.0000000000000000  0.0000000000000000  0.0000000000000000  0.0000000000000000  0.0000000000000000  0.0000000000000000  0.0000000000000000  0.0000000000000000  0.0000000000000000  0.0000000000000000  0.0000000000000000  0.0000000000000000  0.0000000000000000  0.0000000000000000  0.0000000000000000  0.0000000000000000  0.0000000000000000 -0.0000000000000001  0.0000000000000000  0.0000000000000000 -0.0000000000000001  0.0000000000000000  0.0000000000000000  0.0000000000000000  0.0000000000000000  0.0000000000000000  0.0000000000000000  0.0000000000000000  0.0000000000000000  0.0000000000000000  0.0000000000000000  0.0000000000000000  0.0000000000000000  0.0000000000000000  0.0000000000000000  0.0000000000000000  0.0000000000000000  0.0000000000000000  0.0000000000000000  0.0000000000000000  0.0000000000000000  0.0000000000000000  0.0000000000000000  0.0000000000000000  0.0000000000000000  0.0000000000000000  0.0000000000000000  0.0000000000000000  0.0000000000000000  0.0000000000000000  0.0000000000000000 -0.0000000000000001  0.0000000000000000  0.0000000000000000  0.0000000000000000  0.9999999999999994
  0.0000000000000000  0.0000000000000000  0.0000000000000000  0.0000000000000000  0.0000000000000000  0.0000000000000000  0.0000000000000000  0.0000000000000000  0.0000000000000000  0.0000000000000000  0.0000000000000000  0.0000000000000000  0.0000000000000000  0.0000000000000000 -0.0000000000000000  0.0000000000000000  0.0000000000000000 -0.0000000000000000  0.0000000000000000  0.0000000000000000 -0.0000000000000001  0.0000000000000000  0.0000000000000000 -0.0000000000000003  0.0000000000000000  0.0000000000000000 -0.0000000000000001  0.0000000000000000  0.0000000000000000 -0.0000000000000001  0.0000000000000000  0.0000000000000000  0.0000000000000000  0.0000000000000000  0.0000000000000000  0.0000000000000000  0.0000000000000000  0.0000000000000000  0.0000000000000000  0.0000000000000000  0.0000000000000000  0.0000000000000000  0.0000000000000000  0.0000000000000000  0.0000000000000000  0.0000000000000000  0.0000000000000000  0.0000000000000000  0.0000000000000000  0.0000000000000000  0.0000000000000000  0.0000000000000000  0.0000000000000000  0.0000000000000000  0.0000000000000000  0.0000000000000000  0.0000000000000000  0.0000000000000000  0.0000000000000000  0.0000000000000000 -0.0000000000000004  0.0000000000000000  0.0000000000000000  0.0000000000000000  0.9999999999999994
  0.0000000000000000  0.0000000000000000  0.0000000000000000  0.0000000000000000  0.0000000000000000  0.0000000000000000  0.0000000000000000  0.0000000000000000  0.0000000000000000  0.0000000000000000  0.0000000000000000  0.0000000000000000  0.0000000000000000  0.0000000000000000  0.0000000000000000 -0.0000000000000000  0.0000000000000000  0.0000000000000000 -0.0000000000000000  0.0000000000000000  0.0000000000000000 -0.0000000000000001  0.0000000000000000  0.0000000000000000 -0.0000000000000002  0.0000000000000000  0.0000000000000000 -0.0000000000000001  0.0000000000000000  0.0000000000000000 -0.0000000000000001  0.0000000000000000  0.0000000000000000  0.0000000000000000  0.0000000000000000  0.0000000000000000  0.0000000000000000  0.0000000000000000  0.0000000000000000  0.0000000000000000  0.0000000000000000  0.0000000000000000  0.0000000000000000  0.0000000000000000  0.0000000000000000  0.0000000000000000  0.0000000000000000  0.0000000000000000  0.0000000000000000  0.0000000000000000  0.0000000000000000  0.0000000000000000  0.0000000000000000  0.0000000000000000  0.0000000000000000  0.0000000000000000  0.0000000000000000  0.0000000000000000  0.0000000000000000  0.0000000000000000  0.0000000000000000 -0.0000000000000004  0.0000000000000000  0.0000000000000000  0.0000000000000000  1.0000000000000000
 END


 total number of electrons =     0.99999999999986

 => charge of molecule     =     1.00000000000014




------------------------------------------------------------------------

   Population Analysis Based On Occupation Numbers (PABOON)

------------------------------------------------------------------------

 
 CHOICE OF MAOs:
MAOs are selected due to their eigenvalues; determination of their number: 
 automatic; mixing options fix and eigenvalue thr=0.1
 
 ... and this is your MAO selection:
 (atoms for which the two selection methods (fixed/threshold) yield
 different numbers of MAOs are marked by an *)
 
   atom   nr. of MAOs      selection criterion
    1 h          1               eig
    2 h          1               eig
 


************************************************************************
*                                                                      *
*                     unassigned charge =   0.000000                   *
*                                                                      *
************************************************************************



************************************************************************
*                                                                      *
*                       hypervalent contributions                      *
*                                                                      *
************************************************************************

              h    1            0.000000
              h    2            0.000000


************************************************************************
*                                                                      *
*                        shared electron numbers                       *
*                                                                      *
************************************************************************



 TWO center shared electron numbers ge 0.1000E-01 :


************************************************************************
*                                                                      *
*              atomic charges with multicenter corrections             *
*              AS RESULTING FROM 2-CENTER SEN CONTRIBUTIONS            *
*                                                                      *
************************************************************************

                        -------------------------
                           atom   |     charge   
                        -------------------------
                            1 h   |    0.5000
                            2 h   |    0.5000
                        -------------------------


************************************************************************
*                                                                      *
*              atomic charges with multicenter corrections             *
*                                                                      *
************************************************************************

                        -------------------------
                           atom   |     charge   
                        -------------------------
                            1 h   |    0.5000
                            2 h   |    0.5000
                        -------------------------

 
 moments (from total density versus population analysis)
 <charge> =             1.000000            1.000000
 <xx  >   =            -1.016066            0.000000
 <yy  >   =            -1.016066            0.000000
 <zz  >   =            19.887880           20.250000
 <xy  >   =             0.000000            0.000000
 <xz  >   =            -0.000000            0.000000
 <yz  >   =            -0.000000            0.000000

 
 
 ==============================================================================
                      CALCULATION OF QUANTITIES ON GRID
 ==============================================================================
 
 
 output format: v1,v2,f(v1,v2)
 output format: v1,v2,f(v1,v2)
 Reasonable settings for gnuplot contour plots are in file 'gnuset'.
 Call gnuplot and use it by typing: 'load "gnuset"'
 ... and then follow further instructions ...
 
 
 quantities to be calculated are 
 density                     file: ..d.vec
 
 calculation at a plane of  500*  201 points
 
 origin at            0.00000        0.00000        0.00000
 
 normalised grid vectors:
                        x              y              z
  1. vector:         0.00000        0.00000        1.00000
  2. vector:         0.00000        1.00000        0.00000
 
                     minimum       increment       maximum
  1. vector:        -8.00000        0.03206        8.00000
  2. vector:        -5.00000        0.05000        5.00000
 
 
 ==============================================================================
 


    ------------------------------------------------------------------------
         total  cpu-time :   1.69 seconds
         total wall-time :   2.16 seconds
    ------------------------------------------------------------------------


   ****  dscf : all done  ****


    2015-03-28 18:37:15.339 

