 operating system is UNIX !
 hostname is         gplogin1.local

 dscf (gplogin1.local) : TURBOMOLE V6.6( ) 18 Mar 2015 at 17:33:10
 Copyright (C) 2015 TURBOMOLE GmbH, Karlsruhe


    2015-03-28 18:36:57.659 



                             d s c f - program

                   idea & directorship : reinhart ahlrichs
                   program development : marco haeser
                                         michael baer
                           dft version : oliver treutler


                          quantum chemistry group
                          universitaet  karlsruhe
                                  germany




                          References             
                                                 
          TURBOMOLE:                             
              R. Ahlrichs, M. Baer, M. Haeser, H. Horn, and
              C. Koelmel
              Electronic structure calculations on workstation
              computers: the program system TURBOMOLE
              Chem. Phys. Lett. 162: 165 (1989)
          Density Functional:                              
              O. Treutler and R. Ahlrichs                      
              Efficient Molecular Numerical Integration Schemes
              J. Chem. Phys. 102: 346 (1995)                   
          Parallel Version:                                
              Performance of parallel TURBOMOLE for Density    
              Functional Calculations                          
              M. v. Arnim and R. Ahlrichs                      
              J. Comp. Chem. 19: 1746 (1998)                   
                                         



 UHF mode switched on !


              +--------------------------------------------------+
              | Atomic coordinate, charge and isotop information |
              +--------------------------------------------------+

                    atomic coordinates            atom    charge  isotop
          0.00000000    0.00000000   -1.50000000    h      1.000     0
          0.00000000    0.00000000    1.50000000    h      1.000     0
 
       center of nuclear mass  :    0.00000000    0.00000000    0.00000000
       center of nuclear charge:    0.00000000    0.00000000    0.00000000

   *************************************************************************
   h-h/3.0                                                                  
   *************************************************************************



              +--------------------------------------------------+
              |               basis set information              |
              +--------------------------------------------------+

              we will work with the 1s 3p 5d 7f 9g ... basis set
              ...i.e. with spherical basis functions...

   type   atoms  prim   cont   basis
   ---------------------------------------------------------------------------
    h        2     36     33   def2-QZVPPD   [4s4p2d1f|7s4p2d1f]
   ---------------------------------------------------------------------------
   total:    2     72     66
   ---------------------------------------------------------------------------

   total number of primitive shells          :   14
   total number of contracted shells         :   22
   total number of cartesian basis functions :   76
   total number of SCF-basis functions       :   66


 integral neglect threshold       :  0.44E-11
 integral storage threshold THIZE :  0.10E-04
 integral storage threshold THIME :         5


 symmetry group of the molecule :   c1 

 the group has the following generators :
   c1(z)

    1 symmetry operations found

 there are 1 real representations :   a   

 maximum number of shells which are related by symmetry :  1

  missing beta occupation number declaration 

    mo occupation :
   irrep   mo's   occupied
    a       66        1
 
 number of basis functions   :           66
 number of occupied orbitals :            1
 

          ------------------------
          nuclear repulsion energy  :  0.333333333333    
          ------------------------

 
          -----------------
          -S,T+V- integrals
          -----------------

 1e-integrals will be neglected if expon. factor < 0.439732E-12
 
   Difference densities algorithm switched on.
   The maximal number of linear combinations of
   difference densities is          20 .

 automatic virtual orbital shift switched on 
      shift if e(lumo)-e(homo) < 0.10000000    


 DIIS switched on: error vector is FDS-SDF
 Max. Iterations for DIIS is     :   5
 DIIS matrix (see manual) 
    Scaling factor of diagonals  :  1.200
    threshold for scaling factor :  0.000

 scf convergence criterion : increment of total energy < .1000000D-07
                  and increment of one-electron energy < .1000000D-04


 <geterg> : there is no data group $energy 

  MOs are in ASCII format !


 reading orbital data $uhfmo_alpha  from file alpha . 

 orbital characterization : expanded
 

 reading orbital data $uhfmo_beta  from file beta . 

 orbital characterization : expanded
 
 mo provided and orthogonalized by Cholesky decomposition
 mo provided and orthogonalized by Cholesky decomposition

 DSCF restart information will be dumped onto file alpha

 
                                              current damping :  1.000
 ITERATION  ENERGY          1e-ENERGY        2e-ENERGY     NORM[dD(SAO)]  TOL
   1  -.55949240687739    -.89282574021    0.78756445809E-150.000D+00 0.439D-11
          max. resid. norm for Fia-block=  1.175D-01 for orbital      1a    alpha
          max. resid. fock norm         =  3.483D+00 for orbital     64a    beta 
          Delta Eig. =    95.6646722277 eV 
 
                                              current damping :  0.950
 ITERATION  ENERGY          1e-ENERGY        2e-ENERGY     NORM[dD(SAO)]  TOL
   2  -.56592358206216    -.89925691540    0.55164206536E-150.201D-01 0.280D-11
          Norm of current diis error: 0.27253    
          max. resid. norm for Fia-block=  9.907D-02 for orbital      1a    alpha
          max. resid. fock norm         =  9.907D-02 for orbital      1a    alpha
          Delta Eig. =    49.2385880212 eV 
 
                                              current damping :  0.900
 ITERATION  ENERGY          1e-ENERGY        2e-ENERGY     NORM[dD(SAO)]  TOL
   3  -.57138532689069    -.90471866022    0.25639212975E-140.750D-02 0.177D-11
          Norm of current diis error: 0.19231    
          max. resid. norm for Fia-block=  8.158D-02 for orbital      1a    alpha
          max. resid. fock norm         =  8.158D-02 for orbital      1a    alpha
          Delta Eig. =    24.8230765038 eV 
 
                                              current damping :  0.750
 ITERATION  ENERGY          1e-ENERGY        2e-ENERGY     NORM[dD(SAO)]  TOL
   4  -.57509863530169    -.90843196864    0.58078541976E-140.281D-02 0.135D-11
          Norm of current diis error: 0.11708    
          max. resid. norm for Fia-block=  5.458D-02 for orbital      1a    alpha
          max. resid. fock norm         =  5.458D-02 for orbital      1a    alpha
          Delta Eig. =    12.8661101012 eV 
 
                                              current damping :  0.800
 ITERATION  ENERGY          1e-ENERGY        2e-ENERGY     NORM[dD(SAO)]  TOL
   5  -.57685103251276    -.91018436585    -.45415060601E-140.661D-03 0.115D-11
          Norm of current diis error: 0.59207E-01
          max. resid. norm for Fia-block=  2.894D-02 for orbital      1a    alpha
          max. resid. fock norm         =  2.894D-02 for orbital      1a    alpha
 mo-orthogonalization: Cholesky decomposition
          Delta Eig. =     5.3882512233 eV 
 
                                              current damping :  0.650
 ITERATION  ENERGY          1e-ENERGY        2e-ENERGY     NORM[dD(SAO)]  TOL
   6  -.57734112402210    -.91067445736    -.49578396943E-130.129D-03 0.107D-11
          Norm of current diis error: 0.28868E-01
          max. resid. norm for Fia-block=  1.447D-02 for orbital      1a    alpha
          max. resid. fock norm         =  1.447D-02 for orbital      1a    alpha
          Delta Eig. =     2.6182845276 eV 
 
                                              current damping :  0.500
 ITERATION  ENERGY          1e-ENERGY        2e-ENERGY     NORM[dD(SAO)]  TOL
   7  -.57747320598258    -.91080653932    -.43802461658E-120.153D-04 0.102D-11
          Norm of current diis error: 0.12296E-01
          max. resid. norm for Fia-block=  6.293D-03 for orbital      1a    alpha
          max. resid. fock norm         =  6.293D-03 for orbital      1a    alpha
          Delta Eig. =     1.1366670825 eV 
 
                                              current damping :  0.350
 ITERATION  ENERGY          1e-ENERGY        2e-ENERGY     NORM[dD(SAO)]  TOL
   8  -.57749994036327    -.91083327370    -.72327907552E-120.351D-05 0.989D-12
          Norm of current diis error: 0.44211E-02
          max. resid. norm for Fia-block=  2.308D-03 for orbital      1a    alpha
          max. resid. fock norm         =  2.308D-03 for orbital      1a    alpha
          Delta Eig. =     0.4219055227 eV 
 
                                              current damping :  0.400
 ITERATION  ENERGY          1e-ENERGY        2e-ENERGY     NORM[dD(SAO)]  TOL
   9  -.57750376552461    -.91083709886    -.17815263154E-120.116D-05 0.973D-12
          Norm of current diis error: 0.12512E-02
          max. resid. norm for Fia-block=  6.666D-04 for orbital      1a    alpha
          max. resid. fock norm         =  6.666D-04 for orbital      1a    alpha
          Delta Eig. =     0.1058334045 eV 
 
                                              current damping :  0.250
 ITERATION  ENERGY          1e-ENERGY        2e-ENERGY     NORM[dD(SAO)]  TOL
  10  -.57750408323953    -.91083741657    0.18452982198E-110.197D-06 0.964D-12
          Norm of current diis error: 0.38319E-03
          max. resid. norm for Fia-block=  2.075D-04 for orbital      1a    alpha
          max. resid. fock norm         =  2.075D-04 for orbital      1a    alpha
 mo-orthogonalization: Cholesky decomposition
          Delta Eig. =     0.0339745059 eV 
 
                                              current damping :  0.100
 ITERATION  ENERGY          1e-ENERGY        2e-ENERGY     NORM[dD(SAO)]  TOL
  11  -.57750411587291    -.91083744921    0.40488168374E-110.340D-07 0.957D-12
          Norm of current diis error: 0.85302E-04
          max. resid. norm for Fia-block=  4.719D-05 for orbital      1a    alpha
          max. resid. fock norm         =  4.719D-05 for orbital      1a    alpha
          Delta Eig. =     0.0077631675 eV 

 ENERGY CONVERGED !

 
                                              current damping :  0.150
 ITERATION  ENERGY          1e-ENERGY        2e-ENERGY     NORM[dD(SAO)]  TOL
  12  -.57750411765487    -.91083745099    0.78721751340E-140.441D-01 0.125D-11
          max. resid. norm for Fia-block=  4.275D-06 for orbital      1a    alpha
          max. resid. fock norm         =  4.275D-06 for orbital      1a    alpha
 Density matrix in CAO:
 
 Print from pmat
 
 Lower triangle of alpha RDM in AO basis:
  0.0083072420382374
  0.0188955747257757  0.0429796968204302
  0.0289909367307888  0.0659425124301651  0.1011736998464698
  0.0045563542969554  0.0103638406945343  0.0159009426399379  0.0024990682086577
  0.0083072420382373  0.0188955747257756  0.0289909367307887  0.0045563542969554  0.0083072420382373
  0.0188955747257762  0.0429796968204313  0.0659425124301669  0.0103638406945346  0.0188955747257762  0.0429796968204325
  0.0289909367307897  0.0659425124301670  0.1011736998464728  0.0159009426399383  0.0289909367307896  0.0659425124301688  0.1011736998464758
  0.0045563542969398  0.0103638406944987  0.0159009426398833  0.0024990682086492  0.0045563542969398  0.0103638406944990  0.0159009426398837  0.0024990682086406
  0.0000000000000000  0.0000000000000000  0.0000000000000000  0.0000000000000000  0.0000000000000000  0.0000000000000000  0.0000000000000000  0.0000000000000000  0.0000000000000000
 -0.0000000000000000 -0.0000000000000000 -0.0000000000000000 -0.0000000000000000 -0.0000000000000000 -0.0000000000000000 -0.0000000000000000 -0.0000000000000000 -0.0000000000000000  0.0000000000000000
  0.0001396457869377  0.0003176369955365  0.0004873413047551  0.0000765928906894  0.0001396457869377  0.0003176369955365  0.0004873413047551  0.0000765928906891  0.0000000000000000 -0.0000000000000000  0.0000023474633001
 -0.0000000000000000 -0.0000000000000001 -0.0000000000000001 -0.0000000000000000 -0.0000000000000000 -0.0000000000000001 -0.0000000000000001 -0.0000000000000000 -0.0000000000000000  0.0000000000000000 -0.0000000000000000  0.0000000000000000
 -0.0000000000000001 -0.0000000000000002 -0.0000000000000003 -0.0000000000000000 -0.0000000000000001 -0.0000000000000002 -0.0000000000000003 -0.0000000000000000 -0.0000000000000000  0.0000000000000000 -0.0000000000000000  0.0000000000000000  0.0000000000000000
  0.0012308444873418  0.0027996673118857  0.0042954490183047  0.0006750933153229  0.0012308444873418  0.0027996673118858  0.0042954490183049  0.0006750933153206  0.0000000000000000 -0.0000000000000000  0.0000206906511501 -0.0000000000000000 -0.0000000000000000  0.0001823683654631
  0.0000000000000001  0.0000000000000002  0.0000000000000002  0.0000000000000000  0.0000000000000001  0.0000000000000002  0.0000000000000002  0.0000000000000000  0.0000000000000000 -0.0000000000000000  0.0000000000000000 -0.0000000000000000 -0.0000000000000000  0.0000000000000000  0.0000000000000000
  0.0000000000000001  0.0000000000000003  0.0000000000000004  0.0000000000000001  0.0000000000000001  0.0000000000000003  0.0000000000000004  0.0000000000000001  0.0000000000000000 -0.0000000000000000  0.0000000000000000 -0.0000000000000000 -0.0000000000000000  0.0000000000000000  0.0000000000000000  0.0000000000000000
  0.0051138258837271  0.0116318603305164  0.0178464286901720  0.0028048301026926  0.0051138258837271  0.0116318603305167  0.0178464286901725  0.0028048301026830  0.0000000000000000 -0.0000000000000000  0.0000859640584093 -0.0000000000000000 -0.0000000000000000  0.0007576912252272  0.0000000000000000  0.0000000000000001  0.0031480020744196
 -0.0000000000000001 -0.0000000000000001 -0.0000000000000002 -0.0000000000000000 -0.0000000000000001 -0.0000000000000001 -0.0000000000000002 -0.0000000000000000 -0.0000000000000000  0.0000000000000000 -0.0000000000000000  0.0000000000000000  0.0000000000000000 -0.0000000000000000 -0.0000000000000000 -0.0000000000000000 -0.0000000000000000  0.0000000000000000
  0.0000000000000001  0.0000000000000002  0.0000000000000003  0.0000000000000000  0.0000000000000001  0.0000000000000002  0.0000000000000003  0.0000000000000000  0.0000000000000000 -0.0000000000000000  0.0000000000000000 -0.0000000000000000 -0.0000000000000000  0.0000000000000000  0.0000000000000000  0.0000000000000000  0.0000000000000001 -0.0000000000000000  0.0000000000000000
  0.0010284869746776  0.0023393868139456  0.0035892538912523  0.0005641043110174  0.0010284869746776  0.0023393868139457  0.0035892538912524  0.0005641043110155  0.0000000000000000 -0.0000000000000000  0.0000172889958271 -0.0000000000000000 -0.0000000000000000  0.0001523860165935  0.0000000000000000  0.0000000000000000  0.0006331226763315 -0.0000000000000000  0.0000000000000000  0.0001273329285715
  0.0000000000000000  0.0000000000000001  0.0000000000000001  0.0000000000000000  0.0000000000000000  0.0000000000000001  0.0000000000000001  0.0000000000000000  0.0000000000000000 -0.0000000000000000  0.0000000000000000 -0.0000000000000000 -0.0000000000000000  0.0000000000000000  0.0000000000000000  0.0000000000000000  0.0000000000000000 -0.0000000000000000  0.0000000000000000  0.0000000000000000  0.0000000000000000
 -0.0000000000000000 -0.0000000000000001 -0.0000000000000001 -0.0000000000000000 -0.0000000000000000 -0.0000000000000001 -0.0000000000000001 -0.0000000000000000 -0.0000000000000000  0.0000000000000000 -0.0000000000000000  0.0000000000000000  0.0000000000000000 -0.0000000000000000 -0.0000000000000000 -0.0000000000000000 -0.0000000000000000  0.0000000000000000 -0.0000000000000000 -0.0000000000000000 -0.0000000000000000  0.0000000000000000
 -0.0001396457869376 -0.0003176369955365 -0.0004873413047550 -0.0000765928906894 -0.0001396457869376 -0.0003176369955365 -0.0004873413047550 -0.0000765928906891 -0.0000000000000000  0.0000000000000000 -0.0000023474633001  0.0000000000000000  0.0000000000000000 -0.0000206906511501 -0.0000000000000000 -0.0000000000000000 -0.0000859640584093  0.0000000000000000 -0.0000000000000000 -0.0000172889958271 -0.0000000000000000  0.0000000000000000  0.0000023474633001
  0.0000000000000000  0.0000000000000001  0.0000000000000001  0.0000000000000000  0.0000000000000000  0.0000000000000001  0.0000000000000001  0.0000000000000000  0.0000000000000000 -0.0000000000000000  0.0000000000000000 -0.0000000000000000 -0.0000000000000000  0.0000000000000000  0.0000000000000000  0.0000000000000000  0.0000000000000000 -0.0000000000000000  0.0000000000000000  0.0000000000000000  0.0000000000000000 -0.0000000000000000 -0.0000000000000000  0.0000000000000000
  0.0000000000000000  0.0000000000000001  0.0000000000000001  0.0000000000000000  0.0000000000000000  0.0000000000000001  0.0000000000000001  0.0000000000000000  0.0000000000000000 -0.0000000000000000  0.0000000000000000 -0.0000000000000000 -0.0000000000000000  0.0000000000000000  0.0000000000000000  0.0000000000000000  0.0000000000000000 -0.0000000000000000  0.0000000000000000  0.0000000000000000  0.0000000000000000 -0.0000000000000000 -0.0000000000000000  0.0000000000000000  0.0000000000000000
 -0.0012308444873420 -0.0027996673118863 -0.0042954490183056 -0.0006750933153231 -0.0012308444873420 -0.0027996673118864 -0.0042954490183057 -0.0006750933153207 -0.0000000000000000  0.0000000000000000 -0.0000206906511501  0.0000000000000000  0.0000000000000000 -0.0001823683654631 -0.0000000000000000 -0.0000000000000000 -0.0007576912252274  0.0000000000000000 -0.0000000000000000 -0.0001523860165935 -0.0000000000000000  0.0000000000000000  0.0000206906511501 -0.0000000000000000 -0.0000000000000000  0.0001823683654632
 -0.0000000000000001 -0.0000000000000002 -0.0000000000000002 -0.0000000000000000 -0.0000000000000001 -0.0000000000000002 -0.0000000000000002 -0.0000000000000000 -0.0000000000000000  0.0000000000000000 -0.0000000000000000  0.0000000000000000  0.0000000000000000 -0.0000000000000000 -0.0000000000000000 -0.0000000000000000 -0.0000000000000000  0.0000000000000000 -0.0000000000000000 -0.0000000000000000 -0.0000000000000000  0.0000000000000000  0.0000000000000000 -0.0000000000000000 -0.0000000000000000  0.0000000000000000  0.0000000000000000
  0.0000000000000000  0.0000000000000001  0.0000000000000001  0.0000000000000000  0.0000000000000000  0.0000000000000001  0.0000000000000001  0.0000000000000000  0.0000000000000000 -0.0000000000000000  0.0000000000000000 -0.0000000000000000 -0.0000000000000000  0.0000000000000000  0.0000000000000000  0.0000000000000000  0.0000000000000000 -0.0000000000000000  0.0000000000000000  0.0000000000000000  0.0000000000000000 -0.0000000000000000 -0.0000000000000000  0.0000000000000000  0.0000000000000000 -0.0000000000000000 -0.0000000000000000  0.0000000000000000
 -0.0051138258837266 -0.0116318603305153 -0.0178464286901704 -0.0028048301026924 -0.0051138258837266 -0.0116318603305156 -0.0178464286901709 -0.0028048301026827 -0.0000000000000000  0.0000000000000000 -0.0000859640584093  0.0000000000000000  0.0000000000000000 -0.0007576912252272 -0.0000000000000000 -0.0000000000000001 -0.0031480020744193  0.0000000000000000 -0.0000000000000001 -0.0006331226763314 -0.0000000000000000  0.0000000000000000  0.0000859640584093 -0.0000000000000000 -0.0000000000000000  0.0007576912252273  0.0000000000000000 -0.0000000000000000  0.0031480020744191
  0.0000000000000000  0.0000000000000001  0.0000000000000001  0.0000000000000000  0.0000000000000000  0.0000000000000001  0.0000000000000001  0.0000000000000000  0.0000000000000000 -0.0000000000000000  0.0000000000000000 -0.0000000000000000 -0.0000000000000000  0.0000000000000000  0.0000000000000000  0.0000000000000000  0.0000000000000000 -0.0000000000000000  0.0000000000000000  0.0000000000000000  0.0000000000000000 -0.0000000000000000 -0.0000000000000000  0.0000000000000000  0.0000000000000000 -0.0000000000000000 -0.0000000000000000  0.0000000000000000 -0.0000000000000000  0.0000000000000000
  0.0000000000000002  0.0000000000000004  0.0000000000000006  0.0000000000000001  0.0000000000000002  0.0000000000000004  0.0000000000000006  0.0000000000000001  0.0000000000000000 -0.0000000000000000  0.0000000000000000 -0.0000000000000000 -0.0000000000000000  0.0000000000000000  0.0000000000000000  0.0000000000000000  0.0000000000000001 -0.0000000000000000  0.0000000000000000  0.0000000000000000  0.0000000000000000 -0.0000000000000000 -0.0000000000000000  0.0000000000000000  0.0000000000000000 -0.0000000000000000 -0.0000000000000000  0.0000000000000000 -0.0000000000000001  0.0000000000000000  0.0000000000000000
 -0.0010284869746703 -0.0023393868139290 -0.0035892538912267 -0.0005641043110134 -0.0010284869746702 -0.0023393868139290 -0.0035892538912268 -0.0005641043110115 -0.0000000000000000  0.0000000000000000 -0.0000172889958270  0.0000000000000000  0.0000000000000000 -0.0001523860165924 -0.0000000000000000 -0.0000000000000000 -0.0006331226763270  0.0000000000000000 -0.0000000000000000 -0.0001273329285706 -0.0000000000000000  0.0000000000000000  0.0000172889958270 -0.0000000000000000 -0.0000000000000000  0.0001523860165924  0.0000000000000000 -0.0000000000000000  0.0006331226763269 -0.0000000000000000 -0.0000000000000000  0.0001273329285697
  0.0000042930760675  0.0000097649905063  0.0000149821440234  0.0000023546654229  0.0000042930760675  0.0000097649905063  0.0000149821440234  0.0000023546654229  0.0000000000000000 -0.0000000000000000  0.0000000721671504 -0.0000000000000000 -0.0000000000000000  0.0000006360846340  0.0000000000000000  0.0000000000000000  0.0000026427595842 -0.0000000000000000  0.0000000000000000  0.0000005315088686  0.0000000000000000 -0.0000000000000000 -0.0000000721671504  0.0000000000000000  0.0000000000000000 -0.0000006360846340 -0.0000000000000000  0.0000000000000000 -0.0000026427595842  0.0000000000000000  0.0000000000000000 -0.0000005315088686  0.0000000022186066
  0.0000042930760675  0.0000097649905064  0.0000149821440234  0.0000023546654229  0.0000042930760675  0.0000097649905064  0.0000149821440234  0.0000023546654229  0.0000000000000000 -0.0000000000000000  0.0000000721671504 -0.0000000000000000 -0.0000000000000000  0.0000006360846340  0.0000000000000000  0.0000000000000000  0.0000026427595842 -0.0000000000000000  0.0000000000000000  0.0000005315088686  0.0000000000000000 -0.0000000000000000 -0.0000000721671504  0.0000000000000000  0.0000000000000000 -0.0000006360846340 -0.0000000000000000  0.0000000000000000 -0.0000026427595842  0.0000000000000000  0.0000000000000000 -0.0000005315088686  0.0000000022186066  0.0000000022186066
 -0.0000085861521351 -0.0000195299810127 -0.0000299642880468 -0.0000047093308459 -0.0000085861521351 -0.0000195299810127 -0.0000299642880468 -0.0000047093308459 -0.0000000000000000  0.0000000000000000 -0.0000001443343009  0.0000000000000000  0.0000000000000000 -0.0000012721692680 -0.0000000000000000 -0.0000000000000000 -0.0000052855191684  0.0000000000000000 -0.0000000000000000 -0.0000010630177372 -0.0000000000000000  0.0000000000000000  0.0000001443343009 -0.0000000000000000 -0.0000000000000000  0.0000012721692680  0.0000000000000000 -0.0000000000000000  0.0000052855191684 -0.0000000000000000 -0.0000000000000000  0.0000010630177371 -0.0000000044372132 -0.0000000044372132  0.0000000088744265
  0.0000000000000000  0.0000000000000000  0.0000000000000000  0.0000000000000000  0.0000000000000000  0.0000000000000000  0.0000000000000000  0.0000000000000000  0.0000000000000000 -0.0000000000000000  0.0000000000000000 -0.0000000000000000 -0.0000000000000000  0.0000000000000000  0.0000000000000000  0.0000000000000000  0.0000000000000000 -0.0000000000000000  0.0000000000000000  0.0000000000000000  0.0000000000000000 -0.0000000000000000 -0.0000000000000000  0.0000000000000000  0.0000000000000000 -0.0000000000000000 -0.0000000000000000  0.0000000000000000 -0.0000000000000000  0.0000000000000000  0.0000000000000000 -0.0000000000000000  0.0000000000000000  0.0000000000000000 -0.0000000000000000  0.0000000000000000
 -0.0000000000000000 -0.0000000000000000 -0.0000000000000000 -0.0000000000000000 -0.0000000000000000 -0.0000000000000000 -0.0000000000000000 -0.0000000000000000 -0.0000000000000000  0.0000000000000000 -0.0000000000000000  0.0000000000000000  0.0000000000000000 -0.0000000000000000 -0.0000000000000000 -0.0000000000000000 -0.0000000000000000  0.0000000000000000 -0.0000000000000000 -0.0000000000000000 -0.0000000000000000  0.0000000000000000  0.0000000000000000 -0.0000000000000000 -0.0000000000000000  0.0000000000000000  0.0000000000000000 -0.0000000000000000  0.0000000000000000 -0.0000000000000000 -0.0000000000000000  0.0000000000000000 -0.0000000000000000 -0.0000000000000000  0.0000000000000000 -0.0000000000000000  0.0000000000000000
  0.0000000000000000  0.0000000000000000  0.0000000000000001  0.0000000000000000  0.0000000000000000  0.0000000000000000  0.0000000000000001  0.0000000000000000  0.0000000000000000 -0.0000000000000000  0.0000000000000000 -0.0000000000000000 -0.0000000000000000  0.0000000000000000  0.0000000000000000  0.0000000000000000  0.0000000000000000 -0.0000000000000000  0.0000000000000000  0.0000000000000000  0.0000000000000000 -0.0000000000000000 -0.0000000000000000  0.0000000000000000  0.0000000000000000 -0.0000000000000000 -0.0000000000000000  0.0000000000000000 -0.0000000000000000  0.0000000000000000  0.0000000000000000 -0.0000000000000000  0.0000000000000000  0.0000000000000000 -0.0000000000000000  0.0000000000000000 -0.0000000000000000  0.0000000000000000
 -0.0002271707987519 -0.0005167205654504 -0.0007927894990162 -0.0001245985900341 -0.0002271707987519 -0.0005167205654504 -0.0007927894990162 -0.0001245985900337 -0.0000000000000000  0.0000000000000000 -0.0000038187697933  0.0000000000000000  0.0000000000000000 -0.0000336588152893 -0.0000000000000000 -0.0000000000000000 -0.0001398432723324  0.0000000000000000 -0.0000000000000000 -0.0000281251234126 -0.0000000000000000  0.0000000000000000  0.0000038187697933 -0.0000000000000000 -0.0000000000000000  0.0000336588152893  0.0000000000000000 -0.0000000000000000  0.0001398432723324 -0.0000000000000000 -0.0000000000000000  0.0000281251234124 -0.0000001173989532 -0.0000001173989532  0.0000002347979064 -0.0000000000000000  0.0000000000000000 -0.0000000000000000  0.0000062122388595
 -0.0002271707987520 -0.0005167205654504 -0.0007927894990162 -0.0001245985900341 -0.0002271707987520 -0.0005167205654505 -0.0007927894990162 -0.0001245985900337 -0.0000000000000000  0.0000000000000000 -0.0000038187697933  0.0000000000000000  0.0000000000000000 -0.0000336588152893 -0.0000000000000000 -0.0000000000000000 -0.0001398432723324  0.0000000000000000 -0.0000000000000000 -0.0000281251234126 -0.0000000000000000  0.0000000000000000  0.0000038187697933 -0.0000000000000000 -0.0000000000000000  0.0000336588152893  0.0000000000000000 -0.0000000000000000  0.0001398432723324 -0.0000000000000000 -0.0000000000000000  0.0000281251234124 -0.0000001173989532 -0.0000001173989532  0.0000002347979064 -0.0000000000000000  0.0000000000000000 -0.0000000000000000  0.0000062122388595  0.0000062122388595
  0.0004543415975039  0.0010334411309009  0.0015855789980324  0.0002491971800682  0.0004543415975039  0.0010334411309009  0.0015855789980325  0.0002491971800673  0.0000000000000000 -0.0000000000000000  0.0000076375395865 -0.0000000000000000 -0.0000000000000000  0.0000673176305787  0.0000000000000000  0.0000000000000000  0.0002796865446649 -0.0000000000000000  0.0000000000000000  0.0000562502468251  0.0000000000000000 -0.0000000000000000 -0.0000076375395865  0.0000000000000000  0.0000000000000000 -0.0000673176305787 -0.0000000000000000  0.0000000000000000 -0.0002796865446648  0.0000000000000000  0.0000000000000000 -0.0000562502468247  0.0000002347979064  0.0000002347979064 -0.0000004695958128  0.0000000000000000 -0.0000000000000000  0.0000000000000000 -0.0000124244777191 -0.0000124244777191  0.0000248489554382
 -0.0000000000000000 -0.0000000000000000 -0.0000000000000000 -0.0000000000000000 -0.0000000000000000 -0.0000000000000000 -0.0000000000000000 -0.0000000000000000 -0.0000000000000000  0.0000000000000000 -0.0000000000000000  0.0000000000000000  0.0000000000000000 -0.0000000000000000 -0.0000000000000000 -0.0000000000000000 -0.0000000000000000  0.0000000000000000 -0.0000000000000000 -0.0000000000000000 -0.0000000000000000  0.0000000000000000  0.0000000000000000 -0.0000000000000000 -0.0000000000000000  0.0000000000000000  0.0000000000000000 -0.0000000000000000  0.0000000000000000 -0.0000000000000000 -0.0000000000000000  0.0000000000000000 -0.0000000000000000 -0.0000000000000000  0.0000000000000000 -0.0000000000000000  0.0000000000000000 -0.0000000000000000  0.0000000000000000  0.0000000000000000 -0.0000000000000000  0.0000000000000000
  0.0000000000000000  0.0000000000000000  0.0000000000000001  0.0000000000000000  0.0000000000000000  0.0000000000000000  0.0000000000000001  0.0000000000000000  0.0000000000000000 -0.0000000000000000  0.0000000000000000 -0.0000000000000000 -0.0000000000000000  0.0000000000000000  0.0000000000000000  0.0000000000000000  0.0000000000000000 -0.0000000000000000  0.0000000000000000  0.0000000000000000  0.0000000000000000 -0.0000000000000000 -0.0000000000000000  0.0000000000000000  0.0000000000000000 -0.0000000000000000 -0.0000000000000000  0.0000000000000000 -0.0000000000000000  0.0000000000000000  0.0000000000000000 -0.0000000000000000  0.0000000000000000  0.0000000000000000 -0.0000000000000000  0.0000000000000000 -0.0000000000000000  0.0000000000000000 -0.0000000000000000 -0.0000000000000000  0.0000000000000000 -0.0000000000000000  0.0000000000000000
  0.0000000000000000  0.0000000000000000  0.0000000000000001  0.0000000000000000  0.0000000000000000  0.0000000000000000  0.0000000000000001  0.0000000000000000  0.0000000000000000 -0.0000000000000000  0.0000000000000000 -0.0000000000000000 -0.0000000000000000  0.0000000000000000  0.0000000000000000  0.0000000000000000  0.0000000000000000 -0.0000000000000000  0.0000000000000000  0.0000000000000000  0.0000000000000000 -0.0000000000000000 -0.0000000000000000  0.0000000000000000  0.0000000000000000 -0.0000000000000000 -0.0000000000000000  0.0000000000000000 -0.0000000000000000  0.0000000000000000  0.0000000000000000 -0.0000000000000000  0.0000000000000000  0.0000000000000000 -0.0000000000000000  0.0000000000000000 -0.0000000000000000  0.0000000000000000 -0.0000000000000000 -0.0000000000000000  0.0000000000000000 -0.0000000000000000  0.0000000000000000  0.0000000000000000
  0.0000042930760675  0.0000097649905064  0.0000149821440234  0.0000023546654229  0.0000042930760675  0.0000097649905064  0.0000149821440234  0.0000023546654229  0.0000000000000000 -0.0000000000000000  0.0000000721671504 -0.0000000000000000 -0.0000000000000000  0.0000006360846340  0.0000000000000000  0.0000000000000000  0.0000026427595842 -0.0000000000000000  0.0000000000000000  0.0000005315088686  0.0000000000000000 -0.0000000000000000 -0.0000000721671504  0.0000000000000000  0.0000000000000000 -0.0000006360846340 -0.0000000000000000  0.0000000000000000 -0.0000026427595842  0.0000000000000000  0.0000000000000000 -0.0000005315088686  0.0000000022186066  0.0000000022186066 -0.0000000044372132  0.0000000000000000 -0.0000000000000000  0.0000000000000000 -0.0000001173989532 -0.0000001173989532  0.0000002347979064 -0.0000000000000000  0.0000000000000000  0.0000000000000000  0.0000000022186066
  0.0000042930760675  0.0000097649905064  0.0000149821440234  0.0000023546654229  0.0000042930760675  0.0000097649905064  0.0000149821440234  0.0000023546654229  0.0000000000000000 -0.0000000000000000  0.0000000721671504 -0.0000000000000000 -0.0000000000000000  0.0000006360846340  0.0000000000000000  0.0000000000000000  0.0000026427595842 -0.0000000000000000  0.0000000000000000  0.0000005315088686  0.0000000000000000 -0.0000000000000000 -0.0000000721671504  0.0000000000000000  0.0000000000000000 -0.0000006360846340 -0.0000000000000000  0.0000000000000000 -0.0000026427595842  0.0000000000000000  0.0000000000000000 -0.0000005315088686  0.0000000022186066  0.0000000022186066 -0.0000000044372132  0.0000000000000000 -0.0000000000000000  0.0000000000000000 -0.0000001173989532 -0.0000001173989532  0.0000002347979064 -0.0000000000000000  0.0000000000000000  0.0000000000000000  0.0000000022186066  0.0000000022186066
 -0.0000085861521351 -0.0000195299810127 -0.0000299642880468 -0.0000047093308459 -0.0000085861521351 -0.0000195299810127 -0.0000299642880468 -0.0000047093308459 -0.0000000000000000  0.0000000000000000 -0.0000001443343009  0.0000000000000000  0.0000000000000000 -0.0000012721692680 -0.0000000000000000 -0.0000000000000000 -0.0000052855191684  0.0000000000000000 -0.0000000000000000 -0.0000010630177372 -0.0000000000000000  0.0000000000000000  0.0000001443343009 -0.0000000000000000 -0.0000000000000000  0.0000012721692680  0.0000000000000000 -0.0000000000000000  0.0000052855191684 -0.0000000000000000 -0.0000000000000000  0.0000010630177372 -0.0000000044372132 -0.0000000044372132  0.0000000088744265 -0.0000000000000000  0.0000000000000000 -0.0000000000000000  0.0000002347979064  0.0000002347979064 -0.0000004695958128  0.0000000000000000 -0.0000000000000000 -0.0000000000000000 -0.0000000044372132 -0.0000000044372132  0.0000000088744265
  0.0000000000000000  0.0000000000000000  0.0000000000000000  0.0000000000000000  0.0000000000000000  0.0000000000000000  0.0000000000000000  0.0000000000000000  0.0000000000000000 -0.0000000000000000  0.0000000000000000 -0.0000000000000000 -0.0000000000000000  0.0000000000000000  0.0000000000000000  0.0000000000000000  0.0000000000000000 -0.0000000000000000  0.0000000000000000  0.0000000000000000  0.0000000000000000 -0.0000000000000000 -0.0000000000000000  0.0000000000000000  0.0000000000000000 -0.0000000000000000 -0.0000000000000000  0.0000000000000000 -0.0000000000000000  0.0000000000000000  0.0000000000000000 -0.0000000000000000  0.0000000000000000  0.0000000000000000 -0.0000000000000000  0.0000000000000000 -0.0000000000000000  0.0000000000000000 -0.0000000000000000 -0.0000000000000000  0.0000000000000000 -0.0000000000000000  0.0000000000000000  0.0000000000000000  0.0000000000000000  0.0000000000000000 -0.0000000000000000  0.0000000000000000
 -0.0000000000000000 -0.0000000000000000 -0.0000000000000000 -0.0000000000000000 -0.0000000000000000 -0.0000000000000000 -0.0000000000000000 -0.0000000000000000 -0.0000000000000000  0.0000000000000000 -0.0000000000000000  0.0000000000000000  0.0000000000000000 -0.0000000000000000 -0.0000000000000000 -0.0000000000000000 -0.0000000000000000  0.0000000000000000 -0.0000000000000000 -0.0000000000000000 -0.0000000000000000  0.0000000000000000  0.0000000000000000 -0.0000000000000000 -0.0000000000000000  0.0000000000000000  0.0000000000000000 -0.0000000000000000  0.0000000000000000 -0.0000000000000000 -0.0000000000000000  0.0000000000000000 -0.0000000000000000 -0.0000000000000000  0.0000000000000000 -0.0000000000000000  0.0000000000000000 -0.0000000000000000  0.0000000000000000  0.0000000000000000 -0.0000000000000000  0.0000000000000000 -0.0000000000000000 -0.0000000000000000 -0.0000000000000000 -0.0000000000000000  0.0000000000000000 -0.0000000000000000  0.0000000000000000
 -0.0000000000000000 -0.0000000000000000 -0.0000000000000000 -0.0000000000000000 -0.0000000000000000 -0.0000000000000000 -0.0000000000000000 -0.0000000000000000 -0.0000000000000000  0.0000000000000000 -0.0000000000000000  0.0000000000000000  0.0000000000000000 -0.0000000000000000 -0.0000000000000000 -0.0000000000000000 -0.0000000000000000  0.0000000000000000 -0.0000000000000000 -0.0000000000000000 -0.0000000000000000  0.0000000000000000  0.0000000000000000 -0.0000000000000000 -0.0000000000000000  0.0000000000000000  0.0000000000000000 -0.0000000000000000  0.0000000000000000 -0.0000000000000000 -0.0000000000000000  0.0000000000000000 -0.0000000000000000 -0.0000000000000000  0.0000000000000000 -0.0000000000000000  0.0000000000000000 -0.0000000000000000  0.0000000000000000  0.0000000000000000 -0.0000000000000000  0.0000000000000000 -0.0000000000000000 -0.0000000000000000 -0.0000000000000000 -0.0000000000000000  0.0000000000000000 -0.0000000000000000  0.0000000000000000  0.0000000000000000
 -0.0002271707987520 -0.0005167205654506 -0.0007927894990164 -0.0001245985900341 -0.0002271707987520 -0.0005167205654506 -0.0007927894990164 -0.0001245985900337 -0.0000000000000000  0.0000000000000000 -0.0000038187697933  0.0000000000000000  0.0000000000000000 -0.0000336588152893 -0.0000000000000000 -0.0000000000000000 -0.0001398432723325  0.0000000000000000 -0.0000000000000000 -0.0000281251234126 -0.0000000000000000  0.0000000000000000  0.0000038187697933 -0.0000000000000000 -0.0000000000000000  0.0000336588152894  0.0000000000000000 -0.0000000000000000  0.0001398432723325 -0.0000000000000000 -0.0000000000000000  0.0000281251234124 -0.0000001173989532 -0.0000001173989532  0.0000002347979064 -0.0000000000000000  0.0000000000000000 -0.0000000000000000  0.0000062122388595  0.0000062122388595 -0.0000124244777191  0.0000000000000000 -0.0000000000000000 -0.0000000000000000 -0.0000001173989532 -0.0000001173989532  0.0000002347979064 -0.0000000000000000  0.0000000000000000  0.0000000000000000  0.0000062122388596
 -0.0002271707987520 -0.0005167205654505 -0.0007927894990164 -0.0001245985900341 -0.0002271707987520 -0.0005167205654506 -0.0007927894990164 -0.0001245985900337 -0.0000000000000000  0.0000000000000000 -0.0000038187697933  0.0000000000000000  0.0000000000000000 -0.0000336588152893 -0.0000000000000000 -0.0000000000000000 -0.0001398432723325  0.0000000000000000 -0.0000000000000000 -0.0000281251234126 -0.0000000000000000  0.0000000000000000  0.0000038187697933 -0.0000000000000000 -0.0000000000000000  0.0000336588152894  0.0000000000000000 -0.0000000000000000  0.0001398432723325 -0.0000000000000000 -0.0000000000000000  0.0000281251234124 -0.0000001173989532 -0.0000001173989532  0.0000002347979064 -0.0000000000000000  0.0000000000000000 -0.0000000000000000  0.0000062122388595  0.0000062122388595 -0.0000124244777191  0.0000000000000000 -0.0000000000000000 -0.0000000000000000 -0.0000001173989532 -0.0000001173989532  0.0000002347979064 -0.0000000000000000  0.0000000000000000  0.0000000000000000  0.0000062122388595  0.0000062122388595
  0.0004543415975040  0.0010334411309011  0.0015855789980328  0.0002491971800682  0.0004543415975040  0.0010334411309012  0.0015855789980328  0.0002491971800674  0.0000000000000000 -0.0000000000000000  0.0000076375395865 -0.0000000000000000 -0.0000000000000000  0.0000673176305787  0.0000000000000000  0.0000000000000000  0.0002796865446649 -0.0000000000000000  0.0000000000000000  0.0000562502468251  0.0000000000000000 -0.0000000000000000 -0.0000076375395865  0.0000000000000000  0.0000000000000000 -0.0000673176305787 -0.0000000000000000  0.0000000000000000 -0.0002796865446649  0.0000000000000000  0.0000000000000000 -0.0000562502468247  0.0000002347979064  0.0000002347979064 -0.0000004695958128  0.0000000000000000 -0.0000000000000000  0.0000000000000000 -0.0000124244777191 -0.0000124244777191  0.0000248489554382 -0.0000000000000000  0.0000000000000000  0.0000000000000000  0.0000002347979064  0.0000002347979064 -0.0000004695958128  0.0000000000000000 -0.0000000000000000 -0.0000000000000000 -0.0000124244777191 -0.0000124244777191  0.0000248489554382
 -0.0000000000000000 -0.0000000000000000 -0.0000000000000001 -0.0000000000000000 -0.0000000000000000 -0.0000000000000000 -0.0000000000000001 -0.0000000000000000 -0.0000000000000000  0.0000000000000000 -0.0000000000000000  0.0000000000000000  0.0000000000000000 -0.0000000000000000 -0.0000000000000000 -0.0000000000000000 -0.0000000000000000  0.0000000000000000 -0.0000000000000000 -0.0000000000000000 -0.0000000000000000  0.0000000000000000  0.0000000000000000 -0.0000000000000000 -0.0000000000000000  0.0000000000000000  0.0000000000000000 -0.0000000000000000  0.0000000000000000 -0.0000000000000000 -0.0000000000000000  0.0000000000000000 -0.0000000000000000 -0.0000000000000000  0.0000000000000000 -0.0000000000000000  0.0000000000000000 -0.0000000000000000  0.0000000000000000  0.0000000000000000 -0.0000000000000000  0.0000000000000000 -0.0000000000000000 -0.0000000000000000 -0.0000000000000000 -0.0000000000000000  0.0000000000000000 -0.0000000000000000  0.0000000000000000  0.0000000000000000  0.0000000000000000  0.0000000000000000 -0.0000000000000000  0.0000000000000000
 -0.0000000000000000 -0.0000000000000000 -0.0000000000000000 -0.0000000000000000 -0.0000000000000000 -0.0000000000000000 -0.0000000000000000 -0.0000000000000000 -0.0000000000000000  0.0000000000000000 -0.0000000000000000  0.0000000000000000  0.0000000000000000 -0.0000000000000000 -0.0000000000000000 -0.0000000000000000 -0.0000000000000000  0.0000000000000000 -0.0000000000000000 -0.0000000000000000 -0.0000000000000000  0.0000000000000000  0.0000000000000000 -0.0000000000000000 -0.0000000000000000  0.0000000000000000  0.0000000000000000 -0.0000000000000000  0.0000000000000000 -0.0000000000000000 -0.0000000000000000  0.0000000000000000 -0.0000000000000000 -0.0000000000000000  0.0000000000000000 -0.0000000000000000  0.0000000000000000 -0.0000000000000000  0.0000000000000000  0.0000000000000000 -0.0000000000000000  0.0000000000000000 -0.0000000000000000 -0.0000000000000000 -0.0000000000000000 -0.0000000000000000  0.0000000000000000 -0.0000000000000000  0.0000000000000000  0.0000000000000000  0.0000000000000000  0.0000000000000000 -0.0000000000000000  0.0000000000000000  0.0000000000000000
 -0.0000000000000000 -0.0000000000000000 -0.0000000000000000 -0.0000000000000000 -0.0000000000000000 -0.0000000000000000 -0.0000000000000000 -0.0000000000000000 -0.0000000000000000  0.0000000000000000 -0.0000000000000000  0.0000000000000000  0.0000000000000000 -0.0000000000000000 -0.0000000000000000 -0.0000000000000000 -0.0000000000000000  0.0000000000000000 -0.0000000000000000 -0.0000000000000000 -0.0000000000000000  0.0000000000000000  0.0000000000000000 -0.0000000000000000 -0.0000000000000000  0.0000000000000000  0.0000000000000000 -0.0000000000000000  0.0000000000000000 -0.0000000000000000 -0.0000000000000000  0.0000000000000000 -0.0000000000000000 -0.0000000000000000  0.0000000000000000 -0.0000000000000000  0.0000000000000000 -0.0000000000000000  0.0000000000000000  0.0000000000000000 -0.0000000000000000  0.0000000000000000 -0.0000000000000000 -0.0000000000000000 -0.0000000000000000 -0.0000000000000000  0.0000000000000000 -0.0000000000000000  0.0000000000000000  0.0000000000000000  0.0000000000000000  0.0000000000000000 -0.0000000000000000  0.0000000000000000  0.0000000000000000  0.0000000000000000
 -0.0000000000000000 -0.0000000000000000 -0.0000000000000000 -0.0000000000000000 -0.0000000000000000 -0.0000000000000000 -0.0000000000000000 -0.0000000000000000 -0.0000000000000000  0.0000000000000000 -0.0000000000000000  0.0000000000000000  0.0000000000000000 -0.0000000000000000 -0.0000000000000000 -0.0000000000000000 -0.0000000000000000  0.0000000000000000 -0.0000000000000000 -0.0000000000000000 -0.0000000000000000  0.0000000000000000  0.0000000000000000 -0.0000000000000000 -0.0000000000000000  0.0000000000000000  0.0000000000000000 -0.0000000000000000  0.0000000000000000 -0.0000000000000000 -0.0000000000000000  0.0000000000000000 -0.0000000000000000 -0.0000000000000000  0.0000000000000000 -0.0000000000000000  0.0000000000000000 -0.0000000000000000  0.0000000000000000  0.0000000000000000 -0.0000000000000000  0.0000000000000000 -0.0000000000000000 -0.0000000000000000 -0.0000000000000000 -0.0000000000000000  0.0000000000000000 -0.0000000000000000  0.0000000000000000  0.0000000000000000  0.0000000000000000  0.0000000000000000 -0.0000000000000000  0.0000000000000000  0.0000000000000000  0.0000000000000000  0.0000000000000000
 -0.0000000000000000 -0.0000000000000000 -0.0000000000000000 -0.0000000000000000 -0.0000000000000000 -0.0000000000000000 -0.0000000000000000 -0.0000000000000000 -0.0000000000000000  0.0000000000000000 -0.0000000000000000  0.0000000000000000  0.0000000000000000 -0.0000000000000000 -0.0000000000000000 -0.0000000000000000 -0.0000000000000000  0.0000000000000000 -0.0000000000000000 -0.0000000000000000 -0.0000000000000000  0.0000000000000000  0.0000000000000000 -0.0000000000000000 -0.0000000000000000  0.0000000000000000  0.0000000000000000 -0.0000000000000000  0.0000000000000000 -0.0000000000000000 -0.0000000000000000  0.0000000000000000 -0.0000000000000000 -0.0000000000000000  0.0000000000000000 -0.0000000000000000  0.0000000000000000 -0.0000000000000000  0.0000000000000000  0.0000000000000000 -0.0000000000000000  0.0000000000000000 -0.0000000000000000 -0.0000000000000000 -0.0000000000000000 -0.0000000000000000  0.0000000000000000 -0.0000000000000000  0.0000000000000000  0.0000000000000000  0.0000000000000000  0.0000000000000000 -0.0000000000000000  0.0000000000000000  0.0000000000000000  0.0000000000000000  0.0000000000000000  0.0000000000000000
  0.0000180103230928  0.0000409661117696  0.0000628531268117  0.0000098782980724  0.0000180103230928  0.0000409661117696  0.0000628531268117  0.0000098782980724  0.0000000000000000 -0.0000000000000000  0.0000003027558039 -0.0000000000000000 -0.0000000000000000  0.0000026685037937  0.0000000000000000  0.0000000000000000  0.0000110869113940 -0.0000000000000000  0.0000000000000000  0.0000022297872899  0.0000000000000000 -0.0000000000000000 -0.0000003027558039  0.0000000000000000  0.0000000000000000 -0.0000026685037937 -0.0000000000000000  0.0000000000000000 -0.0000110869113940  0.0000000000000000  0.0000000000000000 -0.0000022297872899  0.0000000093075038  0.0000000093075038 -0.0000000186150076  0.0000000000000000 -0.0000000000000000  0.0000000000000000 -0.0000004925123722 -0.0000004925123722  0.0000009850247444 -0.0000000000000000  0.0000000000000000  0.0000000000000000  0.0000000093075038  0.0000000093075038 -0.0000000186150076  0.0000000000000000 -0.0000000000000000 -0.0000000000000000 -0.0000004925123722 -0.0000004925123722  0.0000009850247444 -0.0000000000000000 -0.0000000000000000 -0.0000000000000000 -0.0000000000000000 -0.0000000000000000  0.0000000390468625
  0.0000000000000000  0.0000000000000000  0.0000000000000000  0.0000000000000000  0.0000000000000000  0.0000000000000000  0.0000000000000000  0.0000000000000000  0.0000000000000000 -0.0000000000000000  0.0000000000000000 -0.0000000000000000 -0.0000000000000000  0.0000000000000000  0.0000000000000000  0.0000000000000000  0.0000000000000000 -0.0000000000000000  0.0000000000000000  0.0000000000000000  0.0000000000000000 -0.0000000000000000 -0.0000000000000000  0.0000000000000000  0.0000000000000000 -0.0000000000000000 -0.0000000000000000  0.0000000000000000 -0.0000000000000000  0.0000000000000000  0.0000000000000000 -0.0000000000000000  0.0000000000000000  0.0000000000000000 -0.0000000000000000  0.0000000000000000 -0.0000000000000000  0.0000000000000000 -0.0000000000000000 -0.0000000000000000  0.0000000000000000 -0.0000000000000000  0.0000000000000000  0.0000000000000000  0.0000000000000000  0.0000000000000000 -0.0000000000000000  0.0000000000000000 -0.0000000000000000 -0.0000000000000000 -0.0000000000000000 -0.0000000000000000  0.0000000000000000 -0.0000000000000000 -0.0000000000000000 -0.0000000000000000 -0.0000000000000000 -0.0000000000000000  0.0000000000000000  0.0000000000000000
 -0.0000270154846392 -0.0000614491676544 -0.0000942796902176 -0.0000148174471086 -0.0000270154846392 -0.0000614491676544 -0.0000942796902176 -0.0000148174471086 -0.0000000000000000  0.0000000000000000 -0.0000004541337058  0.0000000000000000  0.0000000000000000 -0.0000040027556905 -0.0000000000000000 -0.0000000000000000 -0.0000166303670910  0.0000000000000000 -0.0000000000000000 -0.0000033446809348 -0.0000000000000000  0.0000000000000000  0.0000004541337058 -0.0000000000000000 -0.0000000000000000  0.0000040027556905  0.0000000000000000 -0.0000000000000000  0.0000166303670910 -0.0000000000000000 -0.0000000000000000  0.0000033446809348 -0.0000000139612557 -0.0000000139612557  0.0000000279225115 -0.0000000000000000  0.0000000000000000 -0.0000000000000000  0.0000007387685583  0.0000007387685583 -0.0000014775371166  0.0000000000000000 -0.0000000000000000 -0.0000000000000000 -0.0000000139612557 -0.0000000139612557  0.0000000279225115 -0.0000000000000000  0.0000000000000000  0.0000000000000000  0.0000007387685583  0.0000007387685583 -0.0000014775371166  0.0000000000000000  0.0000000000000000  0.0000000000000000  0.0000000000000000  0.0000000000000000 -0.0000000585702938 -0.0000000000000000  0.0000000878554407
  0.0000000000000000  0.0000000000000000  0.0000000000000000  0.0000000000000000  0.0000000000000000  0.0000000000000000  0.0000000000000000  0.0000000000000000  0.0000000000000000 -0.0000000000000000  0.0000000000000000 -0.0000000000000000 -0.0000000000000000  0.0000000000000000  0.0000000000000000  0.0000000000000000  0.0000000000000000 -0.0000000000000000  0.0000000000000000  0.0000000000000000  0.0000000000000000 -0.0000000000000000 -0.0000000000000000  0.0000000000000000  0.0000000000000000 -0.0000000000000000 -0.0000000000000000  0.0000000000000000 -0.0000000000000000  0.0000000000000000  0.0000000000000000 -0.0000000000000000  0.0000000000000000  0.0000000000000000 -0.0000000000000000  0.0000000000000000 -0.0000000000000000  0.0000000000000000 -0.0000000000000000 -0.0000000000000000  0.0000000000000000 -0.0000000000000000  0.0000000000000000  0.0000000000000000  0.0000000000000000  0.0000000000000000 -0.0000000000000000  0.0000000000000000 -0.0000000000000000 -0.0000000000000000 -0.0000000000000000 -0.0000000000000000  0.0000000000000000 -0.0000000000000000 -0.0000000000000000 -0.0000000000000000 -0.0000000000000000 -0.0000000000000000  0.0000000000000000  0.0000000000000000 -0.0000000000000000  0.0000000000000000
 -0.0000270154846392 -0.0000614491676544 -0.0000942796902176 -0.0000148174471086 -0.0000270154846392 -0.0000614491676544 -0.0000942796902176 -0.0000148174471086 -0.0000000000000000  0.0000000000000000 -0.0000004541337058  0.0000000000000000  0.0000000000000000 -0.0000040027556905 -0.0000000000000000 -0.0000000000000000 -0.0000166303670910  0.0000000000000000 -0.0000000000000000 -0.0000033446809348 -0.0000000000000000  0.0000000000000000  0.0000004541337058 -0.0000000000000000 -0.0000000000000000  0.0000040027556905  0.0000000000000000 -0.0000000000000000  0.0000166303670910 -0.0000000000000000 -0.0000000000000000  0.0000033446809348 -0.0000000139612557 -0.0000000139612557  0.0000000279225115 -0.0000000000000000  0.0000000000000000 -0.0000000000000000  0.0000007387685583  0.0000007387685583 -0.0000014775371166  0.0000000000000000 -0.0000000000000000 -0.0000000000000000 -0.0000000139612557 -0.0000000139612557  0.0000000279225115 -0.0000000000000000  0.0000000000000000  0.0000000000000000  0.0000007387685583  0.0000007387685583 -0.0000014775371166  0.0000000000000000  0.0000000000000000  0.0000000000000000  0.0000000000000000  0.0000000000000000 -0.0000000585702938 -0.0000000000000000  0.0000000878554407 -0.0000000000000000  0.0000000878554407
 -0.0000000000000000 -0.0000000000000000 -0.0000000000000000 -0.0000000000000000 -0.0000000000000000 -0.0000000000000000 -0.0000000000000000 -0.0000000000000000 -0.0000000000000000  0.0000000000000000 -0.0000000000000000  0.0000000000000000  0.0000000000000000 -0.0000000000000000 -0.0000000000000000 -0.0000000000000000 -0.0000000000000000  0.0000000000000000 -0.0000000000000000 -0.0000000000000000 -0.0000000000000000  0.0000000000000000  0.0000000000000000 -0.0000000000000000 -0.0000000000000000  0.0000000000000000  0.0000000000000000 -0.0000000000000000  0.0000000000000000 -0.0000000000000000 -0.0000000000000000  0.0000000000000000 -0.0000000000000000 -0.0000000000000000  0.0000000000000000 -0.0000000000000000  0.0000000000000000 -0.0000000000000000  0.0000000000000000  0.0000000000000000 -0.0000000000000000  0.0000000000000000 -0.0000000000000000 -0.0000000000000000 -0.0000000000000000 -0.0000000000000000  0.0000000000000000 -0.0000000000000000  0.0000000000000000  0.0000000000000000  0.0000000000000000  0.0000000000000000 -0.0000000000000000  0.0000000000000000  0.0000000000000000  0.0000000000000000  0.0000000000000000  0.0000000000000000 -0.0000000000000000 -0.0000000000000000  0.0000000000000000 -0.0000000000000000  0.0000000000000000  0.0000000000000000
  0.0000000000000000  0.0000000000000000  0.0000000000000000  0.0000000000000000  0.0000000000000000  0.0000000000000000  0.0000000000000000  0.0000000000000000  0.0000000000000000 -0.0000000000000000  0.0000000000000000 -0.0000000000000000 -0.0000000000000000  0.0000000000000000  0.0000000000000000  0.0000000000000000  0.0000000000000000 -0.0000000000000000  0.0000000000000000  0.0000000000000000  0.0000000000000000 -0.0000000000000000 -0.0000000000000000  0.0000000000000000  0.0000000000000000 -0.0000000000000000 -0.0000000000000000  0.0000000000000000 -0.0000000000000000  0.0000000000000000  0.0000000000000000 -0.0000000000000000  0.0000000000000000  0.0000000000000000 -0.0000000000000000  0.0000000000000000 -0.0000000000000000  0.0000000000000000 -0.0000000000000000 -0.0000000000000000  0.0000000000000000 -0.0000000000000000  0.0000000000000000  0.0000000000000000  0.0000000000000000  0.0000000000000000 -0.0000000000000000  0.0000000000000000 -0.0000000000000000 -0.0000000000000000 -0.0000000000000000 -0.0000000000000000  0.0000000000000000 -0.0000000000000000 -0.0000000000000000 -0.0000000000000000 -0.0000000000000000 -0.0000000000000000  0.0000000000000000  0.0000000000000000 -0.0000000000000000  0.0000000000000000 -0.0000000000000000 -0.0000000000000000  0.0000000000000000
 -0.0000000000000000 -0.0000000000000001 -0.0000000000000001 -0.0000000000000000 -0.0000000000000000 -0.0000000000000001 -0.0000000000000001 -0.0000000000000000 -0.0000000000000000  0.0000000000000000 -0.0000000000000000  0.0000000000000000  0.0000000000000000 -0.0000000000000000 -0.0000000000000000 -0.0000000000000000 -0.0000000000000000  0.0000000000000000 -0.0000000000000000 -0.0000000000000000 -0.0000000000000000  0.0000000000000000  0.0000000000000000 -0.0000000000000000 -0.0000000000000000  0.0000000000000000  0.0000000000000000 -0.0000000000000000  0.0000000000000000 -0.0000000000000000 -0.0000000000000000  0.0000000000000000 -0.0000000000000000 -0.0000000000000000  0.0000000000000000 -0.0000000000000000  0.0000000000000000 -0.0000000000000000  0.0000000000000000  0.0000000000000000 -0.0000000000000000  0.0000000000000000 -0.0000000000000000 -0.0000000000000000 -0.0000000000000000 -0.0000000000000000  0.0000000000000000 -0.0000000000000000  0.0000000000000000  0.0000000000000000  0.0000000000000000  0.0000000000000000 -0.0000000000000000  0.0000000000000000  0.0000000000000000  0.0000000000000000  0.0000000000000000  0.0000000000000000 -0.0000000000000000 -0.0000000000000000  0.0000000000000000 -0.0000000000000000  0.0000000000000000  0.0000000000000000 -0.0000000000000000  0.0000000000000000
  0.0000000000000000  0.0000000000000000  0.0000000000000000  0.0000000000000000  0.0000000000000000  0.0000000000000000  0.0000000000000000  0.0000000000000000  0.0000000000000000 -0.0000000000000000  0.0000000000000000 -0.0000000000000000 -0.0000000000000000  0.0000000000000000  0.0000000000000000  0.0000000000000000  0.0000000000000000 -0.0000000000000000  0.0000000000000000  0.0000000000000000  0.0000000000000000 -0.0000000000000000 -0.0000000000000000  0.0000000000000000  0.0000000000000000 -0.0000000000000000 -0.0000000000000000  0.0000000000000000 -0.0000000000000000  0.0000000000000000  0.0000000000000000 -0.0000000000000000  0.0000000000000000  0.0000000000000000 -0.0000000000000000  0.0000000000000000 -0.0000000000000000  0.0000000000000000 -0.0000000000000000 -0.0000000000000000  0.0000000000000000 -0.0000000000000000  0.0000000000000000  0.0000000000000000  0.0000000000000000  0.0000000000000000 -0.0000000000000000  0.0000000000000000 -0.0000000000000000 -0.0000000000000000 -0.0000000000000000 -0.0000000000000000  0.0000000000000000 -0.0000000000000000 -0.0000000000000000 -0.0000000000000000 -0.0000000000000000 -0.0000000000000000  0.0000000000000000  0.0000000000000000 -0.0000000000000000  0.0000000000000000 -0.0000000000000000 -0.0000000000000000  0.0000000000000000 -0.0000000000000000  0.0000000000000000
 -0.0000000000000000 -0.0000000000000000 -0.0000000000000000 -0.0000000000000000 -0.0000000000000000 -0.0000000000000000 -0.0000000000000000 -0.0000000000000000 -0.0000000000000000  0.0000000000000000 -0.0000000000000000  0.0000000000000000  0.0000000000000000 -0.0000000000000000 -0.0000000000000000 -0.0000000000000000 -0.0000000000000000  0.0000000000000000 -0.0000000000000000 -0.0000000000000000 -0.0000000000000000  0.0000000000000000  0.0000000000000000 -0.0000000000000000 -0.0000000000000000  0.0000000000000000  0.0000000000000000 -0.0000000000000000  0.0000000000000000 -0.0000000000000000 -0.0000000000000000  0.0000000000000000 -0.0000000000000000 -0.0000000000000000  0.0000000000000000 -0.0000000000000000  0.0000000000000000 -0.0000000000000000  0.0000000000000000  0.0000000000000000 -0.0000000000000000  0.0000000000000000 -0.0000000000000000 -0.0000000000000000 -0.0000000000000000 -0.0000000000000000  0.0000000000000000 -0.0000000000000000  0.0000000000000000  0.0000000000000000  0.0000000000000000  0.0000000000000000 -0.0000000000000000  0.0000000000000000  0.0000000000000000  0.0000000000000000  0.0000000000000000  0.0000000000000000 -0.0000000000000000 -0.0000000000000000  0.0000000000000000 -0.0000000000000000  0.0000000000000000  0.0000000000000000 -0.0000000000000000  0.0000000000000000 -0.0000000000000000  0.0000000000000000
 -0.0000180103230928 -0.0000409661117696 -0.0000628531268117 -0.0000098782980724 -0.0000180103230928 -0.0000409661117696 -0.0000628531268117 -0.0000098782980724 -0.0000000000000000  0.0000000000000000 -0.0000003027558039  0.0000000000000000  0.0000000000000000 -0.0000026685037937 -0.0000000000000000 -0.0000000000000000 -0.0000110869113940  0.0000000000000000 -0.0000000000000000 -0.0000022297872899 -0.0000000000000000  0.0000000000000000  0.0000003027558039 -0.0000000000000000 -0.0000000000000000  0.0000026685037937  0.0000000000000000 -0.0000000000000000  0.0000110869113940 -0.0000000000000000 -0.0000000000000000  0.0000022297872898 -0.0000000093075038 -0.0000000093075038  0.0000000186150076 -0.0000000000000000  0.0000000000000000 -0.0000000000000000  0.0000004925123722  0.0000004925123722 -0.0000009850247444  0.0000000000000000 -0.0000000000000000 -0.0000000000000000 -0.0000000093075038 -0.0000000093075038  0.0000000186150076 -0.0000000000000000  0.0000000000000000  0.0000000000000000  0.0000004925123722  0.0000004925123722 -0.0000009850247444  0.0000000000000000  0.0000000000000000  0.0000000000000000  0.0000000000000000  0.0000000000000000 -0.0000000390468625 -0.0000000000000000  0.0000000585702938 -0.0000000000000000  0.0000000585702938  0.0000000000000000 -0.0000000000000000  0.0000000000000000 -0.0000000000000000  0.0000000000000000  0.0000000390468625
  0.0000000000000000  0.0000000000000000  0.0000000000000000  0.0000000000000000  0.0000000000000000  0.0000000000000000  0.0000000000000000  0.0000000000000000  0.0000000000000000 -0.0000000000000000  0.0000000000000000 -0.0000000000000000 -0.0000000000000000  0.0000000000000000  0.0000000000000000  0.0000000000000000  0.0000000000000000 -0.0000000000000000  0.0000000000000000  0.0000000000000000  0.0000000000000000 -0.0000000000000000 -0.0000000000000000  0.0000000000000000  0.0000000000000000 -0.0000000000000000 -0.0000000000000000  0.0000000000000000 -0.0000000000000000  0.0000000000000000  0.0000000000000000 -0.0000000000000000  0.0000000000000000  0.0000000000000000 -0.0000000000000000  0.0000000000000000 -0.0000000000000000  0.0000000000000000 -0.0000000000000000 -0.0000000000000000  0.0000000000000000 -0.0000000000000000  0.0000000000000000  0.0000000000000000  0.0000000000000000  0.0000000000000000 -0.0000000000000000  0.0000000000000000 -0.0000000000000000 -0.0000000000000000 -0.0000000000000000 -0.0000000000000000  0.0000000000000000 -0.0000000000000000 -0.0000000000000000 -0.0000000000000000 -0.0000000000000000 -0.0000000000000000  0.0000000000000000  0.0000000000000000 -0.0000000000000000  0.0000000000000000 -0.0000000000000000 -0.0000000000000000  0.0000000000000000 -0.0000000000000000  0.0000000000000000 -0.0000000000000000 -0.0000000000000000  0.0000000000000000
  0.0000270154846392  0.0000614491676544  0.0000942796902175  0.0000148174471086  0.0000270154846392  0.0000614491676544  0.0000942796902175  0.0000148174471086  0.0000000000000000 -0.0000000000000000  0.0000004541337058 -0.0000000000000000 -0.0000000000000000  0.0000040027556905  0.0000000000000000  0.0000000000000000  0.0000166303670910 -0.0000000000000000  0.0000000000000000  0.0000033446809348  0.0000000000000000 -0.0000000000000000 -0.0000004541337058  0.0000000000000000  0.0000000000000000 -0.0000040027556905 -0.0000000000000000  0.0000000000000000 -0.0000166303670910  0.0000000000000000  0.0000000000000000 -0.0000033446809348  0.0000000139612557  0.0000000139612557 -0.0000000279225115  0.0000000000000000 -0.0000000000000000  0.0000000000000000 -0.0000007387685583 -0.0000007387685583  0.0000014775371166 -0.0000000000000000  0.0000000000000000  0.0000000000000000  0.0000000139612557  0.0000000139612557 -0.0000000279225115  0.0000000000000000 -0.0000000000000000 -0.0000000000000000 -0.0000007387685583 -0.0000007387685583  0.0000014775371166 -0.0000000000000000 -0.0000000000000000 -0.0000000000000000 -0.0000000000000000 -0.0000000000000000  0.0000000585702938  0.0000000000000000 -0.0000000878554407  0.0000000000000000 -0.0000000878554407 -0.0000000000000000  0.0000000000000000 -0.0000000000000000  0.0000000000000000 -0.0000000000000000 -0.0000000585702938  0.0000000000000000  0.0000000878554407
  0.0000000000000000  0.0000000000000000  0.0000000000000000  0.0000000000000000  0.0000000000000000  0.0000000000000000  0.0000000000000000  0.0000000000000000  0.0000000000000000 -0.0000000000000000  0.0000000000000000 -0.0000000000000000 -0.0000000000000000  0.0000000000000000  0.0000000000000000  0.0000000000000000  0.0000000000000000 -0.0000000000000000  0.0000000000000000  0.0000000000000000  0.0000000000000000 -0.0000000000000000 -0.0000000000000000  0.0000000000000000  0.0000000000000000 -0.0000000000000000 -0.0000000000000000  0.0000000000000000 -0.0000000000000000  0.0000000000000000  0.0000000000000000 -0.0000000000000000  0.0000000000000000  0.0000000000000000 -0.0000000000000000  0.0000000000000000 -0.0000000000000000  0.0000000000000000 -0.0000000000000000 -0.0000000000000000  0.0000000000000000 -0.0000000000000000  0.0000000000000000  0.0000000000000000  0.0000000000000000  0.0000000000000000 -0.0000000000000000  0.0000000000000000 -0.0000000000000000 -0.0000000000000000 -0.0000000000000000 -0.0000000000000000  0.0000000000000000 -0.0000000000000000 -0.0000000000000000 -0.0000000000000000 -0.0000000000000000 -0.0000000000000000  0.0000000000000000  0.0000000000000000 -0.0000000000000000  0.0000000000000000 -0.0000000000000000 -0.0000000000000000  0.0000000000000000 -0.0000000000000000  0.0000000000000000 -0.0000000000000000 -0.0000000000000000  0.0000000000000000  0.0000000000000000  0.0000000000000000
  0.0000270154846392  0.0000614491676544  0.0000942796902176  0.0000148174471086  0.0000270154846392  0.0000614491676544  0.0000942796902176  0.0000148174471086  0.0000000000000000 -0.0000000000000000  0.0000004541337058 -0.0000000000000000 -0.0000000000000000  0.0000040027556905  0.0000000000000000  0.0000000000000000  0.0000166303670910 -0.0000000000000000  0.0000000000000000  0.0000033446809348  0.0000000000000000 -0.0000000000000000 -0.0000004541337058  0.0000000000000000  0.0000000000000000 -0.0000040027556905 -0.0000000000000000  0.0000000000000000 -0.0000166303670910  0.0000000000000000  0.0000000000000000 -0.0000033446809348  0.0000000139612557  0.0000000139612557 -0.0000000279225115  0.0000000000000000 -0.0000000000000000  0.0000000000000000 -0.0000007387685583 -0.0000007387685583  0.0000014775371166 -0.0000000000000000  0.0000000000000000  0.0000000000000000  0.0000000139612557  0.0000000139612557 -0.0000000279225115  0.0000000000000000 -0.0000000000000000 -0.0000000000000000 -0.0000007387685583 -0.0000007387685583  0.0000014775371166 -0.0000000000000000 -0.0000000000000000 -0.0000000000000000 -0.0000000000000000 -0.0000000000000000  0.0000000585702938  0.0000000000000000 -0.0000000878554407  0.0000000000000000 -0.0000000878554407 -0.0000000000000000  0.0000000000000000 -0.0000000000000000  0.0000000000000000 -0.0000000000000000 -0.0000000585702938  0.0000000000000000  0.0000000878554407  0.0000000000000000  0.0000000878554407
 -0.0000000000000000 -0.0000000000000000 -0.0000000000000000 -0.0000000000000000 -0.0000000000000000 -0.0000000000000000 -0.0000000000000000 -0.0000000000000000 -0.0000000000000000  0.0000000000000000 -0.0000000000000000  0.0000000000000000  0.0000000000000000 -0.0000000000000000 -0.0000000000000000 -0.0000000000000000 -0.0000000000000000  0.0000000000000000 -0.0000000000000000 -0.0000000000000000 -0.0000000000000000  0.0000000000000000  0.0000000000000000 -0.0000000000000000 -0.0000000000000000  0.0000000000000000  0.0000000000000000 -0.0000000000000000  0.0000000000000000 -0.0000000000000000 -0.0000000000000000  0.0000000000000000 -0.0000000000000000 -0.0000000000000000  0.0000000000000000 -0.0000000000000000  0.0000000000000000 -0.0000000000000000  0.0000000000000000  0.0000000000000000 -0.0000000000000000  0.0000000000000000 -0.0000000000000000 -0.0000000000000000 -0.0000000000000000 -0.0000000000000000  0.0000000000000000 -0.0000000000000000  0.0000000000000000  0.0000000000000000  0.0000000000000000  0.0000000000000000 -0.0000000000000000  0.0000000000000000  0.0000000000000000  0.0000000000000000  0.0000000000000000  0.0000000000000000 -0.0000000000000000 -0.0000000000000000  0.0000000000000000 -0.0000000000000000  0.0000000000000000  0.0000000000000000 -0.0000000000000000  0.0000000000000000 -0.0000000000000000  0.0000000000000000  0.0000000000000000 -0.0000000000000000 -0.0000000000000000 -0.0000000000000000 -0.0000000000000000  0.0000000000000000
  0.0000000000000000  0.0000000000000000  0.0000000000000000  0.0000000000000000  0.0000000000000000  0.0000000000000000  0.0000000000000000  0.0000000000000000  0.0000000000000000 -0.0000000000000000  0.0000000000000000 -0.0000000000000000 -0.0000000000000000  0.0000000000000000  0.0000000000000000  0.0000000000000000  0.0000000000000000 -0.0000000000000000  0.0000000000000000  0.0000000000000000  0.0000000000000000 -0.0000000000000000 -0.0000000000000000  0.0000000000000000  0.0000000000000000 -0.0000000000000000 -0.0000000000000000  0.0000000000000000 -0.0000000000000000  0.0000000000000000  0.0000000000000000 -0.0000000000000000  0.0000000000000000  0.0000000000000000 -0.0000000000000000  0.0000000000000000 -0.0000000000000000  0.0000000000000000 -0.0000000000000000 -0.0000000000000000  0.0000000000000000 -0.0000000000000000  0.0000000000000000  0.0000000000000000  0.0000000000000000  0.0000000000000000 -0.0000000000000000  0.0000000000000000 -0.0000000000000000 -0.0000000000000000 -0.0000000000000000 -0.0000000000000000  0.0000000000000000 -0.0000000000000000 -0.0000000000000000 -0.0000000000000000 -0.0000000000000000 -0.0000000000000000  0.0000000000000000  0.0000000000000000 -0.0000000000000000  0.0000000000000000 -0.0000000000000000 -0.0000000000000000  0.0000000000000000 -0.0000000000000000  0.0000000000000000 -0.0000000000000000 -0.0000000000000000  0.0000000000000000  0.0000000000000000  0.0000000000000000  0.0000000000000000 -0.0000000000000000  0.0000000000000000
 -0.0000000000000000 -0.0000000000000001 -0.0000000000000002 -0.0000000000000000 -0.0000000000000000 -0.0000000000000001 -0.0000000000000002 -0.0000000000000000 -0.0000000000000000  0.0000000000000000 -0.0000000000000000  0.0000000000000000  0.0000000000000000 -0.0000000000000000 -0.0000000000000000 -0.0000000000000000 -0.0000000000000000  0.0000000000000000 -0.0000000000000000 -0.0000000000000000 -0.0000000000000000  0.0000000000000000  0.0000000000000000 -0.0000000000000000 -0.0000000000000000  0.0000000000000000  0.0000000000000000 -0.0000000000000000  0.0000000000000000 -0.0000000000000000 -0.0000000000000000  0.0000000000000000 -0.0000000000000000 -0.0000000000000000  0.0000000000000000 -0.0000000000000000  0.0000000000000000 -0.0000000000000000  0.0000000000000000  0.0000000000000000 -0.0000000000000000  0.0000000000000000 -0.0000000000000000 -0.0000000000000000 -0.0000000000000000 -0.0000000000000000  0.0000000000000000 -0.0000000000000000  0.0000000000000000  0.0000000000000000  0.0000000000000000  0.0000000000000000 -0.0000000000000000  0.0000000000000000  0.0000000000000000  0.0000000000000000  0.0000000000000000  0.0000000000000000 -0.0000000000000000 -0.0000000000000000  0.0000000000000000 -0.0000000000000000  0.0000000000000000  0.0000000000000000 -0.0000000000000000  0.0000000000000000 -0.0000000000000000  0.0000000000000000  0.0000000000000000 -0.0000000000000000 -0.0000000000000000 -0.0000000000000000 -0.0000000000000000  0.0000000000000000 -0.0000000000000000  0.0000000000000000
 END
 
 Lower triangle of beta RDM in AO basis:
  0.0000000000000000
  0.0000000000000000  0.0000000000000000
  0.0000000000000000  0.0000000000000000  0.0000000000000000
  0.0000000000000000  0.0000000000000000  0.0000000000000000  0.0000000000000000
  0.0000000000000000  0.0000000000000000  0.0000000000000000  0.0000000000000000  0.0000000000000000
  0.0000000000000000  0.0000000000000000  0.0000000000000000  0.0000000000000000  0.0000000000000000  0.0000000000000000
  0.0000000000000000  0.0000000000000000  0.0000000000000000  0.0000000000000000  0.0000000000000000  0.0000000000000000  0.0000000000000000
  0.0000000000000000  0.0000000000000000  0.0000000000000000  0.0000000000000000  0.0000000000000000  0.0000000000000000  0.0000000000000000  0.0000000000000000
  0.0000000000000000  0.0000000000000000  0.0000000000000000  0.0000000000000000  0.0000000000000000  0.0000000000000000  0.0000000000000000  0.0000000000000000  0.0000000000000000
  0.0000000000000000  0.0000000000000000  0.0000000000000000  0.0000000000000000  0.0000000000000000  0.0000000000000000  0.0000000000000000  0.0000000000000000  0.0000000000000000  0.0000000000000000
  0.0000000000000000  0.0000000000000000  0.0000000000000000  0.0000000000000000  0.0000000000000000  0.0000000000000000  0.0000000000000000  0.0000000000000000  0.0000000000000000  0.0000000000000000  0.0000000000000000
  0.0000000000000000  0.0000000000000000  0.0000000000000000  0.0000000000000000  0.0000000000000000  0.0000000000000000  0.0000000000000000  0.0000000000000000  0.0000000000000000  0.0000000000000000  0.0000000000000000  0.0000000000000000
  0.0000000000000000  0.0000000000000000  0.0000000000000000  0.0000000000000000  0.0000000000000000  0.0000000000000000  0.0000000000000000  0.0000000000000000  0.0000000000000000  0.0000000000000000  0.0000000000000000  0.0000000000000000  0.0000000000000000
  0.0000000000000000  0.0000000000000000  0.0000000000000000  0.0000000000000000  0.0000000000000000  0.0000000000000000  0.0000000000000000  0.0000000000000000  0.0000000000000000  0.0000000000000000  0.0000000000000000  0.0000000000000000  0.0000000000000000  0.0000000000000000
  0.0000000000000000  0.0000000000000000  0.0000000000000000  0.0000000000000000  0.0000000000000000  0.0000000000000000  0.0000000000000000  0.0000000000000000  0.0000000000000000  0.0000000000000000  0.0000000000000000  0.0000000000000000  0.0000000000000000  0.0000000000000000  0.0000000000000000
  0.0000000000000000  0.0000000000000000  0.0000000000000000  0.0000000000000000  0.0000000000000000  0.0000000000000000  0.0000000000000000  0.0000000000000000  0.0000000000000000  0.0000000000000000  0.0000000000000000  0.0000000000000000  0.0000000000000000  0.0000000000000000  0.0000000000000000  0.0000000000000000
  0.0000000000000000  0.0000000000000000  0.0000000000000000  0.0000000000000000  0.0000000000000000  0.0000000000000000  0.0000000000000000  0.0000000000000000  0.0000000000000000  0.0000000000000000  0.0000000000000000  0.0000000000000000  0.0000000000000000  0.0000000000000000  0.0000000000000000  0.0000000000000000  0.0000000000000000
  0.0000000000000000  0.0000000000000000  0.0000000000000000  0.0000000000000000  0.0000000000000000  0.0000000000000000  0.0000000000000000  0.0000000000000000  0.0000000000000000  0.0000000000000000  0.0000000000000000  0.0000000000000000  0.0000000000000000  0.0000000000000000  0.0000000000000000  0.0000000000000000  0.0000000000000000  0.0000000000000000
  0.0000000000000000  0.0000000000000000  0.0000000000000000  0.0000000000000000  0.0000000000000000  0.0000000000000000  0.0000000000000000  0.0000000000000000  0.0000000000000000  0.0000000000000000  0.0000000000000000  0.0000000000000000  0.0000000000000000  0.0000000000000000  0.0000000000000000  0.0000000000000000  0.0000000000000000  0.0000000000000000  0.0000000000000000
  0.0000000000000000  0.0000000000000000  0.0000000000000000  0.0000000000000000  0.0000000000000000  0.0000000000000000  0.0000000000000000  0.0000000000000000  0.0000000000000000  0.0000000000000000  0.0000000000000000  0.0000000000000000  0.0000000000000000  0.0000000000000000  0.0000000000000000  0.0000000000000000  0.0000000000000000  0.0000000000000000  0.0000000000000000  0.0000000000000000
  0.0000000000000000  0.0000000000000000  0.0000000000000000  0.0000000000000000  0.0000000000000000  0.0000000000000000  0.0000000000000000  0.0000000000000000  0.0000000000000000  0.0000000000000000  0.0000000000000000  0.0000000000000000  0.0000000000000000  0.0000000000000000  0.0000000000000000  0.0000000000000000  0.0000000000000000  0.0000000000000000  0.0000000000000000  0.0000000000000000  0.0000000000000000
  0.0000000000000000  0.0000000000000000  0.0000000000000000  0.0000000000000000  0.0000000000000000  0.0000000000000000  0.0000000000000000  0.0000000000000000  0.0000000000000000  0.0000000000000000  0.0000000000000000  0.0000000000000000  0.0000000000000000  0.0000000000000000  0.0000000000000000  0.0000000000000000  0.0000000000000000  0.0000000000000000  0.0000000000000000  0.0000000000000000  0.0000000000000000  0.0000000000000000
  0.0000000000000000  0.0000000000000000  0.0000000000000000  0.0000000000000000  0.0000000000000000  0.0000000000000000  0.0000000000000000  0.0000000000000000  0.0000000000000000  0.0000000000000000  0.0000000000000000  0.0000000000000000  0.0000000000000000  0.0000000000000000  0.0000000000000000  0.0000000000000000  0.0000000000000000  0.0000000000000000  0.0000000000000000  0.0000000000000000  0.0000000000000000  0.0000000000000000  0.0000000000000000
  0.0000000000000000  0.0000000000000000  0.0000000000000000  0.0000000000000000  0.0000000000000000  0.0000000000000000  0.0000000000000000  0.0000000000000000  0.0000000000000000  0.0000000000000000  0.0000000000000000  0.0000000000000000  0.0000000000000000  0.0000000000000000  0.0000000000000000  0.0000000000000000  0.0000000000000000  0.0000000000000000  0.0000000000000000  0.0000000000000000  0.0000000000000000  0.0000000000000000  0.0000000000000000  0.0000000000000000
  0.0000000000000000  0.0000000000000000  0.0000000000000000  0.0000000000000000  0.0000000000000000  0.0000000000000000  0.0000000000000000  0.0000000000000000  0.0000000000000000  0.0000000000000000  0.0000000000000000  0.0000000000000000  0.0000000000000000  0.0000000000000000  0.0000000000000000  0.0000000000000000  0.0000000000000000  0.0000000000000000  0.0000000000000000  0.0000000000000000  0.0000000000000000  0.0000000000000000  0.0000000000000000  0.0000000000000000  0.0000000000000000
  0.0000000000000000  0.0000000000000000  0.0000000000000000  0.0000000000000000  0.0000000000000000  0.0000000000000000  0.0000000000000000  0.0000000000000000  0.0000000000000000  0.0000000000000000  0.0000000000000000  0.0000000000000000  0.0000000000000000  0.0000000000000000  0.0000000000000000  0.0000000000000000  0.0000000000000000  0.0000000000000000  0.0000000000000000  0.0000000000000000  0.0000000000000000  0.0000000000000000  0.0000000000000000  0.0000000000000000  0.0000000000000000  0.0000000000000000
  0.0000000000000000  0.0000000000000000  0.0000000000000000  0.0000000000000000  0.0000000000000000  0.0000000000000000  0.0000000000000000  0.0000000000000000  0.0000000000000000  0.0000000000000000  0.0000000000000000  0.0000000000000000  0.0000000000000000  0.0000000000000000  0.0000000000000000  0.0000000000000000  0.0000000000000000  0.0000000000000000  0.0000000000000000  0.0000000000000000  0.0000000000000000  0.0000000000000000  0.0000000000000000  0.0000000000000000  0.0000000000000000  0.0000000000000000  0.0000000000000000
  0.0000000000000000  0.0000000000000000  0.0000000000000000  0.0000000000000000  0.0000000000000000  0.0000000000000000  0.0000000000000000  0.0000000000000000  0.0000000000000000  0.0000000000000000  0.0000000000000000  0.0000000000000000  0.0000000000000000  0.0000000000000000  0.0000000000000000  0.0000000000000000  0.0000000000000000  0.0000000000000000  0.0000000000000000  0.0000000000000000  0.0000000000000000  0.0000000000000000  0.0000000000000000  0.0000000000000000  0.0000000000000000  0.0000000000000000  0.0000000000000000  0.0000000000000000
  0.0000000000000000  0.0000000000000000  0.0000000000000000  0.0000000000000000  0.0000000000000000  0.0000000000000000  0.0000000000000000  0.0000000000000000  0.0000000000000000  0.0000000000000000  0.0000000000000000  0.0000000000000000  0.0000000000000000  0.0000000000000000  0.0000000000000000  0.0000000000000000  0.0000000000000000  0.0000000000000000  0.0000000000000000  0.0000000000000000  0.0000000000000000  0.0000000000000000  0.0000000000000000  0.0000000000000000  0.0000000000000000  0.0000000000000000  0.0000000000000000  0.0000000000000000  0.0000000000000000
  0.0000000000000000  0.0000000000000000  0.0000000000000000  0.0000000000000000  0.0000000000000000  0.0000000000000000  0.0000000000000000  0.0000000000000000  0.0000000000000000  0.0000000000000000  0.0000000000000000  0.0000000000000000  0.0000000000000000  0.0000000000000000  0.0000000000000000  0.0000000000000000  0.0000000000000000  0.0000000000000000  0.0000000000000000  0.0000000000000000  0.0000000000000000  0.0000000000000000  0.0000000000000000  0.0000000000000000  0.0000000000000000  0.0000000000000000  0.0000000000000000  0.0000000000000000  0.0000000000000000  0.0000000000000000
  0.0000000000000000  0.0000000000000000  0.0000000000000000  0.0000000000000000  0.0000000000000000  0.0000000000000000  0.0000000000000000  0.0000000000000000  0.0000000000000000  0.0000000000000000  0.0000000000000000  0.0000000000000000  0.0000000000000000  0.0000000000000000  0.0000000000000000  0.0000000000000000  0.0000000000000000  0.0000000000000000  0.0000000000000000  0.0000000000000000  0.0000000000000000  0.0000000000000000  0.0000000000000000  0.0000000000000000  0.0000000000000000  0.0000000000000000  0.0000000000000000  0.0000000000000000  0.0000000000000000  0.0000000000000000  0.0000000000000000
[...]
  0.0000000000000000  0.0000000000000000  0.0000000000000000  0.0000000000000000  0.0000000000000000  0.0000000000000000  0.0000000000000000  0.0000000000000000  0.0000000000000000  0.0000000000000002  0.0000000000000000  0.0000000000000000  0.0000000000000006  0.0000000000000000  0.0000000000000000  0.0000000000000001  0.0000000000000000  0.0000000000000000  0.0000000000000001  0.0000000000000000  0.0000000000000000  0.0046093010330081  0.0000000000000000  0.0000000000000000  0.0369874832554835  0.0000000000000000  0.0000000000000000  0.0537960767572681  0.0000000000000000  0.0000000000000000  0.0073124551829972  0.0000000000000000  0.0000000000000000  0.0000000000000000  0.0000000000000000  0.0000000000000000  0.0000000000000000  0.0000000000000000  0.0000000000000000  0.0000000000000000  0.0000000000000000  0.0000000000000000  0.0000000000000000  0.0000000000000000 -0.0180730872188084  0.0000000000000000  0.0000000000000000  0.0000000000000000  0.0000000000000000 -0.1213486349363854  0.0000000000000000  0.0000000000000000  0.0000000000000000  0.0000000000000000  0.9999999999999990
  0.0000000000000000  0.0000000000000000  0.0000000000000000  0.0000000000000000  0.0000000000000000  0.0000000000000000  0.0000000000000000  0.0000000000000000  0.0000000000000000  0.0000000000000000  0.0000000000000000  0.0000000000000000  0.0000000000000000  0.0000000000000000  0.0000000000000000  0.0000000000000000  0.0000000000000000  0.0000000000000000  0.0000000000000000  0.0000000000000000  0.0000000000000000  0.0000000000000000  0.0000000000000000  0.0000000000000000  0.0000000000000000  0.0000000000000000  0.0000000000000000  0.0000000000000000  0.0000000000000000  0.0000000000000000  0.0000000000000000  0.0000000000000000  0.0000000000000000  0.0000000000000000  0.0000000000000000  0.0000000000000000  0.0000000000000000  0.0000000000000000  0.0000000000000000  0.0000000000000000  0.0000000000000000  0.0000000000000000  0.0000000000000000  0.0000000000000000  0.0000000000000000  0.0021998192216015  0.0000000000000000  0.0000000000000000  0.0000000000000000  0.0000000000000000  0.0315323907658319  0.0000000000000000  0.0000000000000000  0.0000000000000000  0.0000000000000000  1.0000000000000002
  0.0000000000000000  0.0000000000000000  0.0000000000000000  0.0000000000000000  0.0000000000000000 -0.0000000000000000  0.0000000000000000  0.0000000000000000  0.0000000000000000  0.0000000000000000  0.0000000000000000  0.0000000000000000  0.0000000000000000 -0.0000000000000001  0.0000000000000000  0.0000000000000000 -0.0000000000000001  0.0000000000000000  0.0000000000000000  0.0000000000000000  0.0000000000000000  0.0000000000000000  0.0000000000000000  0.0000000000000000  0.0000000000000000  0.0000000000000000  0.0000000000000000  0.0000000000000000  0.0000000000000000  0.0000000000000000  0.0000000000000000  0.0000000000000000  0.0000000000000000  0.0000000000000000  0.0000000000000000  0.0000000000000000  0.0000000000000000  0.0000000000000000  0.0000000000000000  0.0000000000000000  0.0000000000000000  0.0000000000000000 -0.0000000000000000  0.0000000000000000  0.0000000000000000  0.0000000000000000  0.0021998192216015  0.0000000000000000  0.0000000000000000  0.0000000000000000  0.0000000000000000  0.0315323907658319 -0.0000000000000001  0.0000000000000000  0.0000000000000000  0.0000000000000000  0.9999999999999994
  0.0000000000000000  0.0000000000000000  0.0000000000000000  0.0000000000000000  0.0000000000000000  0.0000000000000000  0.0000000000000000  0.0000000000000000 -0.0000000000000001  0.0000000000000000  0.0000000000000000 -0.0000000000000003  0.0000000000000000  0.0000000000000000 -0.0000000000000001  0.0000000000000000  0.0000000000000000 -0.0000000000000001  0.0000000000000000  0.0000000000000000 -0.0000000000000000  0.0000000000000000  0.0000000000000000 -0.0000000000000000  0.0000000000000000  0.0000000000000000 -0.0000000000000000  0.0000000000000000  0.0000000000000000 -0.0000000000000000  0.0000000000000000  0.0000000000000000  0.0000000000000000  0.0000000000000000  0.0000000000000000  0.0000000000000000  0.0000000000000000  0.0000000000000000  0.0000000000000000  0.0000000000000000  0.0000000000000000  0.0000000000000000  0.0000000000000000  0.0000000000000000  0.0000000000000000  0.0000000000000000  0.0000000000000000  0.0000000000000000  0.0000000000000000  0.0000000000000000  0.0000000000000000  0.0000000000000000  0.0000000000000000 -0.0000000000000004  0.0000000000000000  0.0000000000000000  0.0000000000000000  0.9999999999999994
  0.0000000000000000  0.0000000000000000  0.0000000000000000  0.0000000000000000  0.0000000000000000  0.0000000000000000  0.0000000000000000  0.0000000000000000  0.0000000000000000 -0.0000000000000001  0.0000000000000000  0.0000000000000000 -0.0000000000000002  0.0000000000000000  0.0000000000000000 -0.0000000000000001  0.0000000000000000  0.0000000000000000 -0.0000000000000001  0.0000000000000000  0.0000000000000000 -0.0000000000000000  0.0000000000000000  0.0000000000000000 -0.0000000000000000  0.0000000000000000  0.0000000000000000 -0.0000000000000000  0.0000000000000000  0.0000000000000000 -0.0000000000000000  0.0000000000000000  0.0000000000000000  0.0000000000000000  0.0000000000000000  0.0000000000000000  0.0000000000000000  0.0000000000000000  0.0000000000000000  0.0000000000000000  0.0000000000000000  0.0000000000000000  0.0000000000000000  0.0000000000000000  0.0000000000000000  0.0000000000000000  0.0000000000000000  0.0000000000000000  0.0000000000000000  0.0000000000000000  0.0000000000000000  0.0000000000000000  0.0000000000000000  0.0000000000000000 -0.0000000000000004  0.0000000000000000  0.0000000000000000  0.0000000000000000  1.0000000000000000
 -0.0108854194458657 -0.0501985800340721 -0.0227166798383891 -0.0022812178663987  0.0000000000000000 -0.0000000000000001  0.0000000000000001 -0.0000000000000001  0.0000000000000000  0.0000000000000000 -0.0237539012479507  0.0000000000000000  0.0000000000000000 -0.0970684824705543  0.0000000000000000  0.0000000000000000 -0.0295901633061934  0.0000000000000000  0.0000000000000000  0.0046951147684672  0.0000000000000000  0.0000000000000000 -0.0000000000000002  0.0000000000000000  0.0000000000000000 -0.0000000000000006  0.0000000000000000  0.0000000000000000  0.0000000000000001  0.0000000000000000  0.0000000000000000 -0.0000000000000001 -0.0471446642637648  0.0000000000000000  0.0000000000000000  0.0000000000000000  0.0000000000000000 -0.1215353014914851  0.0000000000000000  0.0000000000000000  0.0000000000000000 -0.0000000000000000 -0.0000000000000002  0.0000000000000000  0.0000000000000000  0.0000000000000000  0.0000000000000000  0.0000000000000000  0.0000000000000000  0.0000000000000000  0.0000000000000000  0.0000000000000000 -0.1103470871462246  0.0000000000000000  0.0000000000000000  0.0000000000000000  0.0000000000000000  0.0000000000000000  0.0000000000000000  1.0000000000000016
  0.0000000000000000  0.0000000000000000  0.0000000000000000  0.0000000000000000  0.0000000000000000  0.0000000000000000  0.0000000000000000  0.0000000000000000  0.0046093010330081  0.0000000000000000  0.0000000000000000  0.0369874832554835  0.0000000000000000  0.0000000000000000  0.0537960767572681  0.0000000000000000  0.0000000000000000  0.0073124551829972  0.0000000000000000  0.0000000000000000  0.0000000000000002  0.0000000000000000  0.0000000000000000  0.0000000000000004  0.0000000000000000  0.0000000000000000  0.0000000000000000  0.0000000000000000  0.0000000000000000  0.0000000000000001  0.0000000000000000  0.0000000000000000  0.0000000000000000  0.0180730872188084  0.0000000000000000  0.0000000000000000  0.0000000000000000  0.0000000000000000  0.1213486349363854  0.0000000000000000  0.0000000000000000  0.0000000000000000  0.0000000000000000  0.0000000000000000  0.0000000000000000  0.0000000000000000  0.0000000000000000  0.0000000000000000  0.0000000000000000  0.0000000000000000  0.0000000000000000  0.0000000000000000  0.0000000000000000  0.0821102335724850  0.0000000000000000  0.0000000000000000  0.0000000000000000 -0.0000000000000000  0.0000000000000000  0.0000000000000000  0.9999999999999989
  0.0000000000000000  0.0000000000000000  0.0000000000000000  0.0000000000000000  0.0000000000000000  0.0000000000000000  0.0000000000000000  0.0000000000000000  0.0000000000000000  0.0046093010330081  0.0000000000000000  0.0000000000000000  0.0369874832554835  0.0000000000000000  0.0000000000000000  0.0537960767572681  0.0000000000000000  0.0000000000000000  0.0073124551829972  0.0000000000000000  0.0000000000000000  0.0000000000000002  0.0000000000000000  0.0000000000000000  0.0000000000000006  0.0000000000000000  0.0000000000000000  0.0000000000000001  0.0000000000000000  0.0000000000000000  0.0000000000000001  0.0000000000000000  0.0000000000000000  0.0000000000000000  0.0180730872188084  0.0000000000000000  0.0000000000000000  0.0000000000000000  0.0000000000000000  0.1213486349363854  0.0000000000000000  0.0000000000000000  0.0000000000000000  0.0000000000000000  0.0000000000000000  0.0000000000000000  0.0000000000000000  0.0000000000000000  0.0000000000000000  0.0000000000000000  0.0000000000000000  0.0000000000000000  0.0000000000000000  0.0000000000000000  0.0821102335724850  0.0000000000000000  0.0000000000000000  0.0000000000000000 -0.0000000000000000  0.0000000000000000  0.0000000000000000  0.9999999999999990
  0.0000000000000000  0.0000000000000000  0.0000000000000000  0.0000000000000000  0.0000000000000000  0.0000000000000000  0.0000000000000000  0.0000000000000000  0.0000000000000000  0.0000000000000000  0.0000000000000000  0.0000000000000000  0.0000000000000000  0.0000000000000000  0.0000000000000000  0.0000000000000000  0.0000000000000000  0.0000000000000000  0.0000000000000000  0.0000000000000000  0.0000000000000000  0.0000000000000000  0.0000000000000000  0.0000000000000000  0.0000000000000000  0.0000000000000000  0.0000000000000000  0.0000000000000000  0.0000000000000000  0.0000000000000000  0.0000000000000000  0.0000000000000000  0.0000000000000000  0.0000000000000000  0.0000000000000000 -0.0021998192216015  0.0000000000000000  0.0000000000000000  0.0000000000000000  0.0000000000000000 -0.0315323907658319  0.0000000000000000  0.0000000000000000  0.0000000000000000  0.0000000000000000  0.0000000000000000  0.0000000000000000  0.0000000000000000  0.0000000000000000  0.0000000000000000  0.0000000000000000  0.0000000000000000  0.0000000000000000  0.0000000000000000  0.0000000000000000 -0.0215403964714700  0.0000000000000000  0.0000000000000000  0.0000000000000000  0.0000000000000000  0.0000000000000000  0.0000000000000000  1.0000000000000002
  0.0000000000000000  0.0000000000000000  0.0000000000000000 -0.0000000000000000  0.0000000000000000  0.0000000000000000  0.0000000000000000  0.0000000000000000  0.0000000000000000  0.0000000000000000  0.0000000000000000  0.0000000000000000  0.0000000000000000  0.0000000000000000  0.0000000000000000  0.0000000000000000  0.0000000000000000  0.0000000000000000  0.0000000000000000  0.0000000000000000  0.0000000000000000  0.0000000000000000  0.0000000000000000  0.0000000000000000  0.0000000000000000 -0.0000000000000001  0.0000000000000000  0.0000000000000000 -0.0000000000000001  0.0000000000000000  0.0000000000000000  0.0000000000000000  0.0000000000000000  0.0000000000000000  0.0000000000000000  0.0000000000000000 -0.0021998192216015  0.0000000000000000  0.0000000000000000  0.0000000000000000  0.0000000000000000 -0.0315323907658319  0.0000000000000000  0.0000000000000000  0.0000000000000000  0.0000000000000000  0.0000000000000000  0.0000000000000000  0.0000000000000000  0.0000000000000000  0.0000000000000000  0.0000000000000000  0.0000000000000000  0.0000000000000000  0.0000000000000000  0.0000000000000000 -0.0215403964714700  0.0000000000000000  0.0000000000000000 -0.0000000000000001  0.0000000000000000  0.0000000000000000  0.0000000000000000  0.9999999999999994
  0.0000000000000000  0.0000000000000000  0.0000000000000000  0.0000000000000000  0.0000000000000000  0.0000000000000000  0.0000000000000000  0.0000000000000000 -0.0000000000000000  0.0000000000000000  0.0000000000000000 -0.0000000000000000  0.0000000000000000  0.0000000000000000 -0.0000000000000000  0.0000000000000000  0.0000000000000000 -0.0000000000000000  0.0000000000000000  0.0000000000000000 -0.0000000000000001  0.0000000000000000  0.0000000000000000 -0.0000000000000003  0.0000000000000000  0.0000000000000000 -0.0000000000000001  0.0000000000000000  0.0000000000000000 -0.0000000000000001  0.0000000000000000  0.0000000000000000  0.0000000000000000 -0.0000000000000000  0.0000000000000000  0.0000000000000000  0.0000000000000000  0.0000000000000000 -0.0000000000000000  0.0000000000000000  0.0000000000000000  0.0000000000000000  0.0000000000000000  0.0000000000000000  0.0000000000000000  0.0000000000000000  0.0000000000000000  0.0000000000000000  0.0000000000000000  0.0000000000000000  0.0000000000000000  0.0000000000000000  0.0000000000000000 -0.0000000000000000  0.0000000000000000  0.0000000000000000  0.0000000000000000  0.0018612629803396  0.0000000000000000  0.0000000000000000 -0.0000000000000004  0.0000000000000000  0.0000000000000000  0.0000000000000000  0.9999999999999994
  0.0000000000000000  0.0000000000000000  0.0000000000000000  0.0000000000000000  0.0000000000000000  0.0000000000000000  0.0000000000000000  0.0000000000000000  0.0000000000000000 -0.0000000000000000  0.0000000000000000  0.0000000000000000 -0.0000000000000000  0.0000000000000000  0.0000000000000000 -0.0000000000000000  0.0000000000000000  0.0000000000000000 -0.0000000000000000  0.0000000000000000  0.0000000000000000 -0.0000000000000001  0.0000000000000000  0.0000000000000000 -0.0000000000000002  0.0000000000000000  0.0000000000000000 -0.0000000000000001  0.0000000000000000  0.0000000000000000 -0.0000000000000001  0.0000000000000000  0.0000000000000000  0.0000000000000000 -0.0000000000000000  0.0000000000000000  0.0000000000000000  0.0000000000000000  0.0000000000000000 -0.0000000000000000  0.0000000000000000  0.0000000000000000  0.0000000000000000  0.0000000000000000  0.0000000000000000  0.0000000000000000  0.0000000000000000  0.0000000000000000  0.0000000000000000  0.0000000000000000  0.0000000000000000  0.0000000000000000  0.0000000000000000  0.0000000000000000 -0.0000000000000000  0.0000000000000000  0.0000000000000000  0.0000000000000000  0.0018612629803396  0.0000000000000000  0.0000000000000000 -0.0000000000000004  0.0000000000000000  0.0000000000000000  0.0000000000000000  1.0000000000000000
 END


 total number of electrons =     1.00000000000000

 => charge of molecule     =     1.00000000000000




------------------------------------------------------------------------

   Population Analysis Based On Occupation Numbers (PABOON)

------------------------------------------------------------------------

 
 CHOICE OF MAOs:
MAOs are selected due to their eigenvalues; determination of their number: 
 automatic; mixing options fix and eigenvalue thr=0.1
 
 ... and this is your MAO selection:
 (atoms for which the two selection methods (fixed/threshold) yield
 different numbers of MAOs are marked by an *)
 
   atom   nr. of MAOs      selection criterion
    1 h          1               eig
    2 h          1               eig
 


************************************************************************
*                                                                      *
*                     unassigned charge =  -0.000000                   *
*                                                                      *
************************************************************************



************************************************************************
*                                                                      *
*                       hypervalent contributions                      *
*                                                                      *
************************************************************************

              h    1           -0.000000
              h    2           -0.000000


************************************************************************
*                                                                      *
*                        shared electron numbers                       *
*                                                                      *
************************************************************************



 TWO center shared electron numbers ge 0.1000E-01 :

  shared electron number for the pair       1 h  -   2 h   =     0.3796


************************************************************************
*                                                                      *
*              atomic charges with multicenter corrections             *
*              AS RESULTING FROM 2-CENTER SEN CONTRIBUTIONS            *
*                                                                      *
************************************************************************

                        -------------------------
                           atom   |     charge   
                        -------------------------
                            1 h   |    0.5000
                            2 h   |    0.5000
                        -------------------------


************************************************************************
*                                                                      *
*              atomic charges with multicenter corrections             *
*                                                                      *
************************************************************************

                        -------------------------
                           atom   |     charge   
                        -------------------------
                            1 h   |    0.5000
                            2 h   |    0.5000
                        -------------------------

 
 moments (from total density versus population analysis)
 <charge> =             1.000000            1.000000
 <xx  >   =            -0.829059            0.000000
 <yy  >   =            -0.829059            0.000000
 <zz  >   =             2.393036            2.250000
 <xy  >   =             0.000000            0.000000
 <xz  >   =             0.000000            0.000000
 <yz  >   =            -0.000000            0.000000

 
 
 ==============================================================================
                      CALCULATION OF QUANTITIES ON GRID
 ==============================================================================
 
 
 output format: v1,v2,f(v1,v2)
 output format: v1,v2,f(v1,v2)
 Reasonable settings for gnuplot contour plots are in file 'gnuset'.
 Call gnuplot and use it by typing: 'load "gnuset"'
 ... and then follow further instructions ...
 
 
 quantities to be calculated are 
 density                     file: ..d.vec
 
 calculation at a plane of  500*  201 points
 
 origin at            0.00000        0.00000        0.00000
 
 normalised grid vectors:
                        x              y              z
  1. vector:         0.00000        0.00000        1.00000
  2. vector:         0.00000        1.00000        0.00000
 
                     minimum       increment       maximum
  1. vector:        -8.00000        0.03206        8.00000
  2. vector:        -5.00000        0.05000        5.00000
 
 
 ==============================================================================
 


    ------------------------------------------------------------------------
         total  cpu-time :   2.76 seconds
         total wall-time :   4.26 seconds
    ------------------------------------------------------------------------


   ****  dscf : all done  ****


    2015-03-28 18:37:01.886 

