 operating system is UNIX !
 hostname is         gplogin1.local

 dscf (gplogin1.local) : TURBOMOLE V6.6( ) 18 Mar 2015 at 17:33:10
 Copyright (C) 2015 TURBOMOLE GmbH, Karlsruhe


    2015-03-25 17:39:30.986 



                             d s c f - program

                   idea & directorship : reinhart ahlrichs
                   program development : marco haeser
                                         michael baer
                           dft version : oliver treutler


                          quantum chemistry group
                          universitaet  karlsruhe
                                  germany




                          References             
                                                 
          TURBOMOLE:                             
              R. Ahlrichs, M. Baer, M. Haeser, H. Horn, and
              C. Koelmel
              Electronic structure calculations on workstation
              computers: the program system TURBOMOLE
              Chem. Phys. Lett. 162: 165 (1989)
          Density Functional:                              
              O. Treutler and R. Ahlrichs                      
              Efficient Molecular Numerical Integration Schemes
              J. Chem. Phys. 102: 346 (1995)                   
          Parallel Version:                                
              Performance of parallel TURBOMOLE for Density    
              Functional Calculations                          
              M. v. Arnim and R. Ahlrichs                      
              J. Comp. Chem. 19: 1746 (1998)                   
                                         



 UHF mode switched on !


              +--------------------------------------------------+
              | Atomic coordinate, charge and isotop information |
              +--------------------------------------------------+

                    atomic coordinates            atom    charge  isotop
          0.00000000    0.00000000   -1.50000000    h      1.000     0
          0.00000000    0.00000000    1.50000000    h      1.000     0
 
       center of nuclear mass  :    0.00000000    0.00000000    0.00000000
       center of nuclear charge:    0.00000000    0.00000000    0.00000000

   *************************************************************************
   h-h/3.0                                                                  
   *************************************************************************



              +--------------------------------------------------+
              |               basis set information              |
              +--------------------------------------------------+

              we will work with the 1s 3p 5d 7f 9g ... basis set
              ...i.e. with spherical basis functions...

   type   atoms  prim   cont   basis
   ---------------------------------------------------------------------------
    h        2      7      5   def2-SVP   [2s1p|4s1p]
   ---------------------------------------------------------------------------
   total:    2     14     10
   ---------------------------------------------------------------------------

   total number of primitive shells          :    5
   total number of contracted shells         :    6
   total number of cartesian basis functions :   10
   total number of SCF-basis functions       :   10


 integral neglect threshold       :  0.33E-10
 integral storage threshold THIZE :  0.10E-04
 integral storage threshold THIME :         5


 symmetry group of the molecule :   c1 

 the group has the following generators :
   c1(z)

    1 symmetry operations found

 there are 1 real representations :   a   

 maximum number of shells which are related by symmetry :  1

  missing beta occupation number declaration 

    mo occupation :
   irrep   mo's   occupied
    a       10        1
 
 number of basis functions   :           10
 number of occupied orbitals :            1
 

          ------------------------
          nuclear repulsion energy  :  0.333333333333    
          ------------------------

 
          -----------------
          -S,T+V- integrals
          -----------------

 1e-integrals will be neglected if expon. factor < 0.334196E-11
 
   Difference densities algorithm switched on.
   The maximal number of linear combinations of
   difference densities is          20 .

 automatic virtual orbital shift switched on 
      shift if e(lumo)-e(homo) < 0.10000000    


 DIIS switched on: error vector is FDS-SDF
 Max. Iterations for DIIS is     :   5
 DIIS matrix (see manual) 
    Scaling factor of diagonals  :  1.200
    threshold for scaling factor :  0.000

 scf convergence criterion : increment of total energy < .1000000D-07
                  and increment of one-electron energy < .1000000D-04


 <geterg> : there is no data group $energy 

  MOs are in ASCII format !


 reading orbital data $uhfmo_alpha  from file alpha . 

 orbital characterization : expanded
 

 reading orbital data $uhfmo_beta  from file beta . 

 orbital characterization : expanded
 
 mo provided and orthogonalized by Cholesky decomposition
 mo provided and orthogonalized by Cholesky decomposition

 DSCF restart information will be dumped onto file alpha

 
                                              current damping :  1.000
 ITERATION  ENERGY          1e-ENERGY        2e-ENERGY     NORM[dD(SAO)]  TOL
   1  -.55889193299497    -.89222526633    0.69388939039E-170.000D+00 0.333D-10
          max. resid. norm for Fia-block=  1.124D-01 for orbital      1a    alpha
          max. resid. fock norm         =  7.417D-01 for orbital      4a    alpha
          Delta Eig. =    32.7418025005 eV 
 
                                              current damping :  0.950
 ITERATION  ENERGY          1e-ENERGY        2e-ENERGY     NORM[dD(SAO)]  TOL
   2  -.56429911089747    -.89763244423     0.0000000000    0.396D-01 0.209D-10
          Norm of current diis error: 0.11471    
          max. resid. norm for Fia-block=  9.018D-02 for orbital      1a    alpha
          max. resid. fock norm         =  9.018D-02 for orbital      1a    alpha
          Delta Eig. =    16.7007522982 eV 
 
                                              current damping :  0.900
 ITERATION  ENERGY          1e-ENERGY        2e-ENERGY     NORM[dD(SAO)]  TOL
   3  -.56801801198240    -.90135134532    0.20816681712E-160.471D-02 0.138D-10
          Norm of current diis error: 0.73058E-01
          max. resid. norm for Fia-block=  6.605D-02 for orbital      1a    alpha
          max. resid. fock norm         =  6.605D-02 for orbital      1a    alpha
          Delta Eig. =     8.2780293101 eV 
 
                                              current damping :  0.950
 ITERATION  ENERGY          1e-ENERGY        2e-ENERGY     NORM[dD(SAO)]  TOL
   4  -.56998081026612    -.90331414360     0.0000000000    0.643D-03 0.107D-10
          Norm of current diis error: 0.40526E-01
          max. resid. norm for Fia-block=  3.969D-02 for orbital      1a    alpha
          max. resid. fock norm         =  3.969D-02 for orbital      1a    alpha
          Delta Eig. =     3.7958516830 eV 
 
                                              current damping :  1.000
 ITERATION  ENERGY          1e-ENERGY        2e-ENERGY     NORM[dD(SAO)]  TOL
   5  -.57068105506656    -.90401438840     0.0000000000    0.141D-03 0.936D-11
          Norm of current diis error: 0.21525E-01
          max. resid. norm for Fia-block=  2.213D-02 for orbital      1a    alpha
          max. resid. fock norm         =  2.213D-02 for orbital      1a    alpha
 mo-orthogonalization: Cholesky decomposition
          Delta Eig. =     1.7956318293 eV 
 
                                              current damping :  1.050
 ITERATION  ENERGY          1e-ENERGY        2e-ENERGY     NORM[dD(SAO)]  TOL
   6  -.57089999868560    -.90423333202    0.18041124150E-150.506D-06 0.867D-11
          Norm of current diis error: 0.11381E-01
          max. resid. norm for Fia-block=  1.217D-02 for orbital      1a    alpha
          max. resid. fock norm         =  1.217D-02 for orbital      1a    alpha
          Delta Eig. =     0.8732790328 eV 
 
                                              current damping :  0.900
 ITERATION  ENERGY          1e-ENERGY        2e-ENERGY     NORM[dD(SAO)]  TOL
   7  -.57096641046281    -.90429974380    0.11865508576E-140.461D-14 0.799D-11
          Norm of current diis error: 0.60898E-02
          max. resid. norm for Fia-block=  6.739D-03 for orbital      1a    alpha
          max. resid. fock norm         =  6.739D-03 for orbital      1a    alpha
          Delta Eig. =     0.4813248327 eV 
 
                                              current damping :  0.750
 ITERATION  ENERGY          1e-ENERGY        2e-ENERGY     NORM[dD(SAO)]  TOL
   8  -.57098816736564    -.90432150070    0.24563684420E-140.766D-15 0.722D-11
          Norm of current diis error: 0.30140E-02
          max. resid. norm for Fia-block=  3.456D-03 for orbital      1a    alpha
          max. resid. fock norm         =  3.456D-03 for orbital      1a    alpha
          Delta Eig. =     0.2468447802 eV 
 
                                              current damping :  0.600
 ITERATION  ENERGY          1e-ENERGY        2e-ENERGY     NORM[dD(SAO)]  TOL
   9  -.57099425769747    -.90432759103    0.37261860264E-140.732D-15 0.663D-11
          Norm of current diis error: 0.13533E-02
          max. resid. norm for Fia-block=  1.609D-03 for orbital      1a    alpha
          max. resid. fock norm         =  1.609D-03 for orbital      1a    alpha
          Delta Eig. =     0.1153671786 eV 
 
                                              current damping :  0.450
 ITERATION  ENERGY          1e-ENERGY        2e-ENERGY     NORM[dD(SAO)]  TOL
  10  -.57099566156057    -.90432899489    0.47045700668E-140.678D-15 0.627D-11
          Norm of current diis error: 0.53557E-03
          max. resid. norm for Fia-block=  6.611D-04 for orbital      1a    alpha
          max. resid. fock norm         =  6.611D-04 for orbital      1a    alpha
 mo-orthogonalization: Cholesky decomposition
          Delta Eig. =     0.0475845484 eV 
 
                                              current damping :  0.300
 ITERATION  ENERGY          1e-ENERGY        2e-ENERGY     NORM[dD(SAO)]  TOL
  11  -.57099591419292    -.90432924753    0.53429483060E-140.418D-15 0.606D-11
          Norm of current diis error: 0.17843E-03
          max. resid. norm for Fia-block=  2.298D-04 for orbital      1a    alpha
          max. resid. fock norm         =  2.298D-04 for orbital      1a    alpha
          Delta Eig. =     0.0164097470 eV 
 
                                              current damping :  0.350
 ITERATION  ENERGY          1e-ENERGY        2e-ENERGY     NORM[dD(SAO)]  TOL
  12  -.57099594681766    -.90432928015     0.0000000000    0.218D-01 0.950D-11
          Norm of current diis error: 0.46294E-04
          max. resid. norm for Fia-block=  6.274D-05 for orbital      1a    alpha
          max. resid. fock norm         =  6.274D-05 for orbital      1a    alpha
          Delta Eig. =     0.0036288697 eV 

 ENERGY CONVERGED !

 
                                              current damping :  0.400
 ITERATION  ENERGY          1e-ENERGY        2e-ENERGY     NORM[dD(SAO)]  TOL
  13  -.57099594927107    -.90432928260    0.34694469520E-160.218D-01 0.333D-10
          max. resid. norm for Fia-block=  1.472D-05 for orbital      1a    alpha
          max. resid. fock norm         =  1.472D-05 for orbital      1a    alpha
 Density matrix in CAO:
 
 Print from pmat
 
 Lower triangle of alpha RDM in AO basis:
  0.1861757165722430
  0.1016205078176483  0.0554676399223610
  0.1861757165722439  0.1016205078176487  0.1861757165722447
  0.1016205078176486  0.0554676399223612  0.1016205078176491  0.0554676399223614
 -0.0000000000000000 -0.0000000000000000 -0.0000000000000000 -0.0000000000000000  0.0000000000000000
 -0.0000000000000005 -0.0000000000000003 -0.0000000000000005 -0.0000000000000003  0.0000000000000000  0.0000000000000000
  0.0204475013513630  0.0111608834341253  0.0204475013513631  0.0111608834341253 -0.0000000000000000 -0.0000000000000001  0.0022457295678073
  0.0000000000000005  0.0000000000000003  0.0000000000000005  0.0000000000000003 -0.0000000000000000 -0.0000000000000000  0.0000000000000001  0.0000000000000000
  0.0000000000000001  0.0000000000000000  0.0000000000000001  0.0000000000000000 -0.0000000000000000 -0.0000000000000000  0.0000000000000000  0.0000000000000000  0.0000000000000000
 -0.0204475013513630 -0.0111608834341253 -0.0204475013513631 -0.0111608834341253  0.0000000000000000  0.0000000000000001 -0.0022457295678073 -0.0000000000000001 -0.0000000000000000  0.0022457295678073
 END
 
 Lower triangle of beta RDM in AO basis:
  0.0000000000000000
  0.0000000000000000  0.0000000000000000
  0.0000000000000000  0.0000000000000000  0.0000000000000000
  0.0000000000000000  0.0000000000000000  0.0000000000000000  0.0000000000000000
  0.0000000000000000  0.0000000000000000  0.0000000000000000  0.0000000000000000  0.0000000000000000
  0.0000000000000000  0.0000000000000000  0.0000000000000000  0.0000000000000000  0.0000000000000000  0.0000000000000000
  0.0000000000000000  0.0000000000000000  0.0000000000000000  0.0000000000000000  0.0000000000000000  0.0000000000000000  0.0000000000000000
  0.0000000000000000  0.0000000000000000  0.0000000000000000  0.0000000000000000  0.0000000000000000  0.0000000000000000  0.0000000000000000  0.0000000000000000
  0.0000000000000000  0.0000000000000000  0.0000000000000000  0.0000000000000000  0.0000000000000000  0.0000000000000000  0.0000000000000000  0.0000000000000000  0.0000000000000000
  0.0000000000000000  0.0000000000000000  0.0000000000000000  0.0000000000000000  0.0000000000000000  0.0000000000000000  0.0000000000000000  0.0000000000000000  0.0000000000000000  0.0000000000000000
 END

 convergence criteria satisfied after 13 iterations


   *************************************************************************
   h-h/3.0                                                                  
   *************************************************************************


                  ------------------------------------------ 
                 |  total energy      =     -0.57099594927  |
                  ------------------------------------------ 
                 :  kinetic energy    =      0.48163507203  :
                 :  potential energy  =     -1.05263102130  :
                 :  virial theorem    =      1.84349998041  :
                 :  wavefunction norm =      1.00000000000  :
                  .......................................... 


 <geterg> : there is no data group $energy 


 <skperg> : $end is missing 


 orbitals $uhfmo_beta  will be written to file beta

 orbitals $uhfmo_alpha  will be written to file alpha
 
 alpha: 

    irrep                  1a          2a          3a          4a          5a   
 eigenvalues H         -0.90433    -0.39228     0.26511     0.27841     0.90722
            eV         -24.6082    -10.6746      7.2140      7.5758     24.6868
 occupation              1.0000 

    irrep                  6a          7a          8a          9a         10a   
 eigenvalues H          1.09384     1.09384     1.25971     1.25971     1.68734
            eV          29.7651     29.7651     34.2787     34.2787     45.9151
 
 beta:  

    irrep                  1a          2a          3a          4a          5a   
 eigenvalues H         -0.40328    -0.23486     0.34334     0.35246     0.99534
            eV         -10.9739     -6.3910      9.3429      9.5910     27.0847

    irrep                  6a          7a          8a          9a         10a   
 eigenvalues H          1.17245     1.17245     1.32081     1.32081     1.74220
            eV          31.9043     31.9043     35.9414     35.9414     47.4081
 

                                             _ _ _ 
  IRREP     alpha occ.     beta occ.      tr(D*D-D)


 a          1.00000000     0.00000000    -0.25000000

   -------------------------------------------------

   sum      1.00000000     0.00000000    -0.25000000

 <S*S>     0.75000000

 
 
 
 ==============================================================================
                           electrostatic moments
 ==============================================================================
 
              nuc           elec       ->  total
 ------------------------------------------------------------------------------
                          charge      
 ------------------------------------------------------------------------------
           2.000000      -1.000000       1.000000
 a-b                                     1.000000
 
 ------------------------------------------------------------------------------
                       dipole moment  
 ------------------------------------------------------------------------------
   x       0.000000      -0.000000      -0.000000
   y       0.000000       0.000000       0.000000
   z       0.000000      -0.000000      -0.000000
 
   | dipole moment | =     0.0000 a.u. =     0.0000 debye 
 
 ------------------------------------------------------------------------------
                     quadrupole moment
 ------------------------------------------------------------------------------
  xx       0.000000      -0.868774      -0.868774
  yy       0.000000      -0.868774      -0.868774
  zz       4.500000      -2.458127       2.041873
  xy       0.000000      -0.000000      -0.000000
  xz       0.000000      -0.000000      -0.000000
  yz       0.000000      -0.000000      -0.000000
 
     1/3  trace=       0.101442
     anisotropy=       2.910647

 CONSTRUCTING NATURAL ORBITALS ...

 Print overlap matrix
  1.0000000000000004
  0.6847998247453734  1.0000000000000002
  0.0998437860590254  0.2841288227732069  1.0000000000000004
  0.2841288227732069  0.5776579947620025  0.6847998247453734  1.0000000000000002
  0.0000000000000000  0.0000000000000000  0.0000000000000000  0.0000000000000000  1.0000000000000009
  0.0000000000000000  0.0000000000000000  0.0000000000000000  0.0000000000000000  0.0000000000000000  1.0000000000000011
  0.0000000000000000  0.0000000000000000  0.1165139327811927  0.1527557118868656  0.0000000000000000  0.0000000000000000  1.0000000000000011
  0.0000000000000000  0.0000000000000000  0.0000000000000000  0.0000000000000000  0.0273237224472926  0.0000000000000000  0.0000000000000000  1.0000000000000009
  0.0000000000000000  0.0000000000000000  0.0000000000000000  0.0000000000000000  0.0000000000000000  0.0273237224472926  0.0000000000000000  0.0000000000000000  1.0000000000000011
 -0.1165139327811927 -0.1527557118868656  0.0000000000000000  0.0000000000000000  0.0000000000000000  0.0000000000000000 -0.1694070791732139  0.0000000000000000  0.0000000000000000  1.0000000000000011
 END


 total number of electrons =     1.00000000000000

 => charge of molecule     =     1.00000000000000




------------------------------------------------------------------------

   Population Analysis Based On Occupation Numbers (PABOON)

------------------------------------------------------------------------

 
 CHOICE OF MAOs:
MAOs are selected due to their eigenvalues; determination of their number: 
 automatic; mixing options fix and eigenvalue thr=0.1
 
 ... and this is your MAO selection:
 (atoms for which the two selection methods (fixed/threshold) yield
 different numbers of MAOs are marked by an *)
 
   atom   nr. of MAOs      selection criterion
    1 h          1               eig
    2 h          1               eig
 


************************************************************************
*                                                                      *
*                     unassigned charge =  -0.000000                   *
*                                                                      *
************************************************************************



************************************************************************
*                                                                      *
*                       hypervalent contributions                      *
*                                                                      *
************************************************************************

              h    1           -0.000000
              h    2           -0.000000


************************************************************************
*                                                                      *
*                        shared electron numbers                       *
*                                                                      *
************************************************************************



 TWO center shared electron numbers ge 0.1000E-01 :

  shared electron number for the pair       1 h  -   2 h   =     0.3052


************************************************************************
*                                                                      *
*              atomic charges with multicenter corrections             *
*              AS RESULTING FROM 2-CENTER SEN CONTRIBUTIONS            *
*                                                                      *
************************************************************************

                        -------------------------
                           atom   |     charge   
                        -------------------------
                            1 h   |    0.5000
                            2 h   |    0.5000
                        -------------------------


************************************************************************
*                                                                      *
*              atomic charges with multicenter corrections             *
*                                                                      *
************************************************************************

                        -------------------------
                           atom   |     charge   
                        -------------------------
                            1 h   |    0.5000
                            2 h   |    0.5000
                        -------------------------

 
 moments (from total density versus population analysis)
 <charge> =             1.000000            1.000000
 <xx  >   =            -0.868774            0.000000
 <yy  >   =            -0.868774            0.000000
 <zz  >   =             2.041873            2.250000
 <xy  >   =            -0.000000            0.000000
 <xz  >   =            -0.000000            0.000000
 <yz  >   =            -0.000000            0.000000

 
 
 ==============================================================================
                      CALCULATION OF QUANTITIES ON GRID
 ==============================================================================
 
 
 output format: v1,v2,f(v1,v2)
 output format: v1,v2,f(v1,v2)
 Reasonable settings for gnuplot contour plots are in file 'gnuset'.
 Call gnuplot and use it by typing: 'load "gnuset"'
 ... and then follow further instructions ...
 
 
 quantities to be calculated are 
 density                     file: ..d.vec
 
 calculation at a plane of  500*  201 points
 
 origin at            0.00000        0.00000        0.00000
 
 normalised grid vectors:
                        x              y              z
  1. vector:         0.00000        0.00000        1.00000
  2. vector:         0.00000        1.00000        0.00000
 
                     minimum       increment       maximum
  1. vector:        -8.00000        0.03206        8.00000
  2. vector:        -5.00000        0.05000        5.00000
 
 
 ==============================================================================
 


    ------------------------------------------------------------------------
         total  cpu-time :   0.92 seconds
         total wall-time :   1.94 seconds
    ------------------------------------------------------------------------


   ****  dscf : all done  ****


    2015-03-25 17:39:32.878 

