 operating system is UNIX !
 hostname is         gplogin1.local

 dscf (gplogin1.local) : TURBOMOLE V6.6( ) 18 Mar 2015 at 17:33:10
 Copyright (C) 2015 TURBOMOLE GmbH, Karlsruhe


    2015-03-28 18:37:16.938 



                             d s c f - program

                   idea & directorship : reinhart ahlrichs
                   program development : marco haeser
                                         michael baer
                           dft version : oliver treutler


                          quantum chemistry group
                          universitaet  karlsruhe
                                  germany




                          References             
                                                 
          TURBOMOLE:                             
              R. Ahlrichs, M. Baer, M. Haeser, H. Horn, and
              C. Koelmel
              Electronic structure calculations on workstation
              computers: the program system TURBOMOLE
              Chem. Phys. Lett. 162: 165 (1989)
          Density Functional:                              
              O. Treutler and R. Ahlrichs                      
              Efficient Molecular Numerical Integration Schemes
              J. Chem. Phys. 102: 346 (1995)                   
          Parallel Version:                                
              Performance of parallel TURBOMOLE for Density    
              Functional Calculations                          
              M. v. Arnim and R. Ahlrichs                      
              J. Comp. Chem. 19: 1746 (1998)                   
                                         



 UHF mode switched on !


              +--------------------------------------------------+
              | Atomic coordinate, charge and isotop information |
              +--------------------------------------------------+

                    atomic coordinates            atom    charge  isotop
          0.00000000    0.00000000   -5.50000000    h      1.000     0
          0.00000000    0.00000000    5.50000000    h      1.000     0
 
       center of nuclear mass  :    0.00000000    0.00000000    0.00000000
       center of nuclear charge:    0.00000000    0.00000000    0.00000000

   *************************************************************************
   h-h/11.0                                                                 
   *************************************************************************



              +--------------------------------------------------+
              |               basis set information              |
              +--------------------------------------------------+

              we will work with the 1s 3p 5d 7f 9g ... basis set
              ...i.e. with spherical basis functions...

   type   atoms  prim   cont   basis
   ---------------------------------------------------------------------------
    h        2     36     33   def2-QZVPPD   [4s4p2d1f|7s4p2d1f]
   ---------------------------------------------------------------------------
   total:    2     72     66
   ---------------------------------------------------------------------------

   total number of primitive shells          :   14
   total number of contracted shells         :   22
   total number of cartesian basis functions :   76
   total number of SCF-basis functions       :   66


 integral neglect threshold       :  0.44E-11
 integral storage threshold THIZE :  0.10E-04
 integral storage threshold THIME :         5


 symmetry group of the molecule :   c1 

 the group has the following generators :
   c1(z)

    1 symmetry operations found

 there are 1 real representations :   a   

 maximum number of shells which are related by symmetry :  1

  missing beta occupation number declaration 

    mo occupation :
   irrep   mo's   occupied
    a       66        1
 
 number of basis functions   :           66
 number of occupied orbitals :            1
 

          ------------------------
          nuclear repulsion energy  :  0.909090909091E-01
          ------------------------

 
          -----------------
          -S,T+V- integrals
          -----------------

 1e-integrals will be neglected if expon. factor < 0.439732E-12
 
   Difference densities algorithm switched on.
   The maximal number of linear combinations of
   difference densities is          20 .

 automatic virtual orbital shift switched on 
      shift if e(lumo)-e(homo) < 0.10000000    


 DIIS switched on: error vector is FDS-SDF
 Max. Iterations for DIIS is     :   5
 DIIS matrix (see manual) 
    Scaling factor of diagonals  :  1.200
    threshold for scaling factor :  0.000

 scf convergence criterion : increment of total energy < .1000000D-07
                  and increment of one-electron energy < .1000000D-04


 <geterg> : there is no data group $energy 

  MOs are in ASCII format !


 reading orbital data $uhfmo_alpha  from file alpha . 

 orbital characterization : expanded
 

 reading orbital data $uhfmo_beta  from file beta . 

 orbital characterization : expanded
 
 mo provided and orthogonalized by Cholesky decomposition
 mo provided and orthogonalized by Cholesky decomposition

 DSCF restart information will be dumped onto file alpha

 
                                              current damping :  1.000
 ITERATION  ENERGY          1e-ENERGY        2e-ENERGY     NORM[dD(SAO)]  TOL
   1  -.50005217786504    -.59096126878    0.23233359681E-110.000D+00 0.439D-11
          max. resid. norm for Fia-block=  1.102D-02 for orbital      1a    alpha
          max. resid. fock norm         =  3.160D+00 for orbital     52a    beta 
          Delta Eig. =    78.1319050173 eV 
 
                                              current damping :  0.950
 ITERATION  ENERGY          1e-ENERGY        2e-ENERGY     NORM[dD(SAO)]  TOL
   2  -.50011230241919    -.59102139333    0.59373478356E-110.745D-02 0.280D-11
          Norm of current diis error: 0.17952E-01
          max. resid. norm for Fia-block=  8.889D-03 for orbital      1a    alpha
          max. resid. fock norm         =  7.273D-02 for orbital      1a    beta 
          Delta Eig. =    40.0693188356 eV 
 
                                              current damping :  0.800
 ITERATION  ENERGY          1e-ENERGY        2e-ENERGY     NORM[dD(SAO)]  TOL
   3  -.50017160708125    -.59108069800    0.12118984635E-100.145D-02 0.192D-11
          Norm of current diis error: 0.14060E-01
          max. resid. norm for Fia-block=  7.762D-03 for orbital      1a    alpha
          max. resid. fock norm         =  5.437D-02 for orbital      1a    beta 
          Delta Eig. =    21.1483086013 eV 
 
                                              current damping :  0.650
 ITERATION  ENERGY          1e-ENERGY        2e-ENERGY     NORM[dD(SAO)]  TOL
   4  -.50022691269557    -.59113600363    0.22002732969E-100.388D-03 0.144D-11
          Norm of current diis error: 0.93110E-02
          max. resid. norm for Fia-block=  5.764D-03 for orbital      1a    alpha
          max. resid. fock norm         =  3.528D-02 for orbital      1a    beta 
          Delta Eig. =    10.2510804835 eV 
 
                                              current damping :  0.500
 ITERATION  ENERGY          1e-ENERGY        2e-ENERGY     NORM[dD(SAO)]  TOL
   5  -.50026026035675    -.59116935130    0.32492413274E-100.558D-04 0.120D-11
          Norm of current diis error: 0.48255E-02
          max. resid. norm for Fia-block=  3.163D-03 for orbital      1a    alpha
          max. resid. fock norm         =  1.814D-02 for orbital      1a    beta 
 mo-orthogonalization: Cholesky decomposition
          Delta Eig. =     4.4386947390 eV 
 
                                              current damping :  0.350
 ITERATION  ENERGY          1e-ENERGY        2e-ENERGY     NORM[dD(SAO)]  TOL
   6  -.50027115919946    -.59118025015    0.37911939213E-100.138D-04 0.108D-11
          Norm of current diis error: 0.19301E-02
          max. resid. norm for Fia-block=  1.305D-03 for orbital      1a    alpha
          max. resid. fock norm         =  6.949D-03 for orbital      1a    beta 
          Delta Eig. =     1.6415183117 eV 
 
                                              current damping :  0.200
 ITERATION  ENERGY          1e-ENERGY        2e-ENERGY     NORM[dD(SAO)]  TOL
   7  -.50027316246672    -.59118225342    0.39904466884E-100.403D-05 0.102D-11
          Norm of current diis error: 0.58754E-03
          max. resid. norm for Fia-block=  4.100D-04 for orbital      1a    alpha
          max. resid. fock norm         =  1.890D-03 for orbital      1a    beta 
          Delta Eig. =     0.4775356551 eV 
 
                                              current damping :  0.100
 ITERATION  ENERGY          1e-ENERGY        2e-ENERGY     NORM[dD(SAO)]  TOL
   8  -.50027337198415    -.59118246293    0.40991864417E-100.189D-05 0.993D-12
          Norm of current diis error: 0.12318E-03
          max. resid. norm for Fia-block=  8.974D-05 for orbital      1a    alpha
          max. resid. fock norm         =  3.121D-04 for orbital      1a    beta 
          Delta Eig. =     0.0863053116 eV 
 
                                              current damping :  0.150
 ITERATION  ENERGY          1e-ENERGY        2e-ENERGY     NORM[dD(SAO)]  TOL
   9  -.50027338234798    -.59118247329    0.31248344190E-100.624D-02 0.125D-11
          Norm of current diis error: 0.18724E-04
          max. resid. norm for Fia-block=  1.441D-05 for orbital      1a    alpha
          max. resid. fock norm         =  2.580D-05 for orbital      1a    beta 
          Delta Eig. =     0.0073474581 eV 

 ENERGY CONVERGED !

 
                                              current damping :  0.100
 ITERATION  ENERGY          1e-ENERGY        2e-ENERGY     NORM[dD(SAO)]  TOL
  10  -.50027338260798    -.59118247355    0.29025486875E-100.701D-07 0.125D-11
          max. resid. norm for Fia-block=  2.660D-06 for orbital      1a    alpha
          max. resid. fock norm         =  2.964D-06 for orbital      1a    beta 
 Density matrix in CAO:
 
 Print from pmat
 
 Lower triangle of alpha RDM in AO basis:
  0.0087522025758933
  0.0197760999443650  0.0446852235900849
  0.0311867612758302  0.0704682624269488  0.1111279212794443
  0.0153408485097094  0.0346635204942578  0.0546641118155505  0.0268894179444688
  0.0087522025758924  0.0197760999443627  0.0311867612758267  0.0153408485097076  0.0087522025758914
  0.0197760999443627  0.0446852235900798  0.0704682624269406  0.0346635204942538  0.0197760999443604  0.0446852235900746
  0.0311867612758266  0.0704682624269406  0.1111279212794313  0.0546641118155441  0.0311867612758231  0.0704682624269324  0.1111279212794182
  0.0153408485097077  0.0346635204942540  0.0546641118155445  0.0268894179444659  0.0153408485097060  0.0346635204942500  0.0546641118155381  0.0268894179444630
  0.0000000000000000  0.0000000000000000  0.0000000000000000  0.0000000000000000  0.0000000000000000  0.0000000000000000  0.0000000000000000  0.0000000000000000  0.0000000000000000
  0.0000000000000000  0.0000000000000000  0.0000000000000000  0.0000000000000000  0.0000000000000000  0.0000000000000000  0.0000000000000000  0.0000000000000000  0.0000000000000000  0.0000000000000000
  0.0000120147940163  0.0000271481110288  0.0000428123674600  0.0000210595142515  0.0000120147940163  0.0000271481110288  0.0000428123674600  0.0000210595142515  0.0000000000000000  0.0000000000000000  0.0000000164935939
  0.0000000000000000  0.0000000000000000  0.0000000000000000  0.0000000000000000  0.0000000000000000  0.0000000000000000  0.0000000000000000  0.0000000000000000  0.0000000000000000  0.0000000000000000  0.0000000000000000  0.0000000000000000
  0.0000000000000000  0.0000000000000000  0.0000000000000000  0.0000000000000000  0.0000000000000000  0.0000000000000000  0.0000000000000000  0.0000000000000000  0.0000000000000000  0.0000000000000000  0.0000000000000000  0.0000000000000000  0.0000000000000000
  0.0000396771840751  0.0000896528560640  0.0001413818815455  0.0000695461130966  0.0000396771840751  0.0000896528560640  0.0001413818815454  0.0000695461130966  0.0000000000000000  0.0000000000000000  0.0000000544677971  0.0000000000000000  0.0000000000000000  0.0000001798723147
 -0.0000000000000000 -0.0000000000000001 -0.0000000000000001 -0.0000000000000001 -0.0000000000000000 -0.0000000000000001 -0.0000000000000001 -0.0000000000000001 -0.0000000000000000 -0.0000000000000000 -0.0000000000000000 -0.0000000000000000 -0.0000000000000000 -0.0000000000000000  0.0000000000000000
  0.0000000000000000  0.0000000000000001  0.0000000000000002  0.0000000000000001  0.0000000000000000  0.0000000000000001  0.0000000000000002  0.0000000000000001  0.0000000000000000  0.0000000000000000  0.0000000000000000  0.0000000000000000  0.0000000000000000  0.0000000000000000 -0.0000000000000000  0.0000000000000000
  0.0003783185562403  0.0008548323138249  0.0013480641469816  0.0006631162395257  0.0003783185562402  0.0008548323138248  0.0013480641469814  0.0006631162395257  0.0000000000000000  0.0000000000000000  0.0000005193457860  0.0000000000000000  0.0000000000000000  0.0000017150671348 -0.0000000000000000  0.0000000000000000  0.0000163530184265
  0.0000000000000001  0.0000000000000002  0.0000000000000004  0.0000000000000002  0.0000000000000001  0.0000000000000002  0.0000000000000004  0.0000000000000002  0.0000000000000000  0.0000000000000000  0.0000000000000000  0.0000000000000000  0.0000000000000000  0.0000000000000000 -0.0000000000000000  0.0000000000000000  0.0000000000000000  0.0000000000000000
 -0.0000000000000002 -0.0000000000000005 -0.0000000000000008 -0.0000000000000004 -0.0000000000000002 -0.0000000000000005 -0.0000000000000008 -0.0000000000000004 -0.0000000000000000 -0.0000000000000000 -0.0000000000000000 -0.0000000000000000 -0.0000000000000000 -0.0000000000000000  0.0000000000000000 -0.0000000000000000 -0.0000000000000000 -0.0000000000000000  0.0000000000000000
  0.0010591521303094  0.0023932145312745  0.0037740813648130  0.0018564803818146  0.0010591521303093  0.0023932145312743  0.0037740813648126  0.0018564803818144  0.0000000000000000  0.0000000000000000  0.0000014539762497  0.0000000000000000  0.0000000000000000  0.0000048015540858 -0.0000000000000000  0.0000000000000000  0.0000457824074915  0.0000000000000000 -0.0000000000000000  0.0001281738197227
  0.0000000000000000  0.0000000000000000  0.0000000000000000  0.0000000000000000  0.0000000000000000  0.0000000000000000  0.0000000000000000  0.0000000000000000  0.0000000000000000  0.0000000000000000  0.0000000000000000  0.0000000000000000  0.0000000000000000  0.0000000000000000 -0.0000000000000000  0.0000000000000000  0.0000000000000000  0.0000000000000000 -0.0000000000000000  0.0000000000000000  0.0000000000000000
 -0.0000000000000000 -0.0000000000000000 -0.0000000000000000 -0.0000000000000000 -0.0000000000000000 -0.0000000000000000 -0.0000000000000000 -0.0000000000000000 -0.0000000000000000 -0.0000000000000000 -0.0000000000000000 -0.0000000000000000 -0.0000000000000000 -0.0000000000000000  0.0000000000000000 -0.0000000000000000 -0.0000000000000000 -0.0000000000000000  0.0000000000000000 -0.0000000000000000 -0.0000000000000000  0.0000000000000000
 -0.0000120147940163 -0.0000271481110287 -0.0000428123674600 -0.0000210595142515 -0.0000120147940163 -0.0000271481110287 -0.0000428123674600 -0.0000210595142515 -0.0000000000000000 -0.0000000000000000 -0.0000000164935939 -0.0000000000000000 -0.0000000000000000 -0.0000000544677971  0.0000000000000000 -0.0000000000000000 -0.0000005193457860 -0.0000000000000000  0.0000000000000000 -0.0000014539762497 -0.0000000000000000  0.0000000000000000  0.0000000164935939
  0.0000000000000000  0.0000000000000000  0.0000000000000001  0.0000000000000000  0.0000000000000000  0.0000000000000000  0.0000000000000001  0.0000000000000000  0.0000000000000000  0.0000000000000000  0.0000000000000000  0.0000000000000000  0.0000000000000000  0.0000000000000000 -0.0000000000000000  0.0000000000000000  0.0000000000000000  0.0000000000000000 -0.0000000000000000  0.0000000000000000  0.0000000000000000 -0.0000000000000000 -0.0000000000000000  0.0000000000000000
 -0.0000000000000000 -0.0000000000000000 -0.0000000000000001 -0.0000000000000000 -0.0000000000000000 -0.0000000000000000 -0.0000000000000001 -0.0000000000000000 -0.0000000000000000 -0.0000000000000000 -0.0000000000000000 -0.0000000000000000 -0.0000000000000000 -0.0000000000000000  0.0000000000000000 -0.0000000000000000 -0.0000000000000000 -0.0000000000000000  0.0000000000000000 -0.0000000000000000 -0.0000000000000000  0.0000000000000000  0.0000000000000000 -0.0000000000000000  0.0000000000000000
 -0.0000396771840751 -0.0000896528560641 -0.0001413818815455 -0.0000695461130967 -0.0000396771840751 -0.0000896528560640 -0.0001413818815455 -0.0000695461130966 -0.0000000000000000 -0.0000000000000000 -0.0000000544677971 -0.0000000000000000 -0.0000000000000000 -0.0000001798723147  0.0000000000000000 -0.0000000000000000 -0.0000017150671348 -0.0000000000000000  0.0000000000000000 -0.0000048015540858 -0.0000000000000000  0.0000000000000000  0.0000000544677971 -0.0000000000000000  0.0000000000000000  0.0000001798723147
 -0.0000000000000001 -0.0000000000000001 -0.0000000000000002 -0.0000000000000001 -0.0000000000000001 -0.0000000000000001 -0.0000000000000002 -0.0000000000000001 -0.0000000000000000 -0.0000000000000000 -0.0000000000000000 -0.0000000000000000 -0.0000000000000000 -0.0000000000000000  0.0000000000000000 -0.0000000000000000 -0.0000000000000000 -0.0000000000000000  0.0000000000000000 -0.0000000000000000 -0.0000000000000000  0.0000000000000000  0.0000000000000000 -0.0000000000000000  0.0000000000000000  0.0000000000000000  0.0000000000000000
  0.0000000000000001  0.0000000000000002  0.0000000000000004  0.0000000000000002  0.0000000000000001  0.0000000000000002  0.0000000000000004  0.0000000000000002  0.0000000000000000  0.0000000000000000  0.0000000000000000  0.0000000000000000  0.0000000000000000  0.0000000000000000 -0.0000000000000000  0.0000000000000000  0.0000000000000000  0.0000000000000000 -0.0000000000000000  0.0000000000000000  0.0000000000000000 -0.0000000000000000 -0.0000000000000000  0.0000000000000000 -0.0000000000000000 -0.0000000000000000 -0.0000000000000000  0.0000000000000000
 -0.0003783185562402 -0.0008548323138249 -0.0013480641469815 -0.0006631162395257 -0.0003783185562402 -0.0008548323138248 -0.0013480641469813 -0.0006631162395256 -0.0000000000000000 -0.0000000000000000 -0.0000005193457860 -0.0000000000000000 -0.0000000000000000 -0.0000017150671348  0.0000000000000000 -0.0000000000000000 -0.0000163530184265 -0.0000000000000000  0.0000000000000000 -0.0000457824074915 -0.0000000000000000  0.0000000000000000  0.0000005193457860 -0.0000000000000000  0.0000000000000000  0.0000017150671348  0.0000000000000000 -0.0000000000000000  0.0000163530184265
  0.0000000000000001  0.0000000000000003  0.0000000000000005  0.0000000000000003  0.0000000000000001  0.0000000000000003  0.0000000000000005  0.0000000000000003  0.0000000000000000  0.0000000000000000  0.0000000000000000  0.0000000000000000  0.0000000000000000  0.0000000000000000 -0.0000000000000000  0.0000000000000000  0.0000000000000000  0.0000000000000000 -0.0000000000000000  0.0000000000000000  0.0000000000000000 -0.0000000000000000 -0.0000000000000000  0.0000000000000000 -0.0000000000000000 -0.0000000000000000 -0.0000000000000000  0.0000000000000000 -0.0000000000000000  0.0000000000000000
 -0.0000000000000001 -0.0000000000000001 -0.0000000000000002 -0.0000000000000001 -0.0000000000000001 -0.0000000000000001 -0.0000000000000002 -0.0000000000000001 -0.0000000000000000 -0.0000000000000000 -0.0000000000000000 -0.0000000000000000 -0.0000000000000000 -0.0000000000000000  0.0000000000000000 -0.0000000000000000 -0.0000000000000000 -0.0000000000000000  0.0000000000000000 -0.0000000000000000 -0.0000000000000000  0.0000000000000000  0.0000000000000000 -0.0000000000000000  0.0000000000000000  0.0000000000000000  0.0000000000000000 -0.0000000000000000  0.0000000000000000 -0.0000000000000000  0.0000000000000000
 -0.0010591521303093 -0.0023932145312741 -0.0037740813648123 -0.0018564803818143 -0.0010591521303091 -0.0023932145312739 -0.0037740813648119 -0.0018564803818141 -0.0000000000000000 -0.0000000000000000 -0.0000014539762497 -0.0000000000000000 -0.0000000000000000 -0.0000048015540858  0.0000000000000000 -0.0000000000000000 -0.0000457824074915 -0.0000000000000000  0.0000000000000000 -0.0001281738197227 -0.0000000000000000  0.0000000000000000  0.0000014539762497 -0.0000000000000000  0.0000000000000000  0.0000048015540858  0.0000000000000000 -0.0000000000000000  0.0000457824074915 -0.0000000000000000  0.0000000000000000  0.0001281738197226
  0.0000018049949534  0.0000040784888476  0.0000064317463208  0.0000031637926455  0.0000018049949534  0.0000040784888476  0.0000064317463208  0.0000031637926455  0.0000000000000000  0.0000000000000000  0.0000000024778497  0.0000000000000000  0.0000000000000000  0.0000000081827536 -0.0000000000000000  0.0000000000000000  0.0000000780218555  0.0000000000000000 -0.0000000000000000  0.0000002184323584  0.0000000000000000 -0.0000000000000000 -0.0000000024778497  0.0000000000000000 -0.0000000000000000 -0.0000000081827536 -0.0000000000000000  0.0000000000000000 -0.0000000780218555  0.0000000000000000 -0.0000000000000000 -0.0000002184323584  0.0000000003722499
  0.0000018049949534  0.0000040784888476  0.0000064317463208  0.0000031637926454  0.0000018049949534  0.0000040784888476  0.0000064317463208  0.0000031637926454  0.0000000000000000  0.0000000000000000  0.0000000024778497  0.0000000000000000  0.0000000000000000  0.0000000081827536 -0.0000000000000000  0.0000000000000000  0.0000000780218555  0.0000000000000000 -0.0000000000000000  0.0000002184323584  0.0000000000000000 -0.0000000000000000 -0.0000000024778497  0.0000000000000000 -0.0000000000000000 -0.0000000081827536 -0.0000000000000000  0.0000000000000000 -0.0000000780218555  0.0000000000000000 -0.0000000000000000 -0.0000002184323584  0.0000000003722499  0.0000000003722499
 -0.0000036099899068 -0.0000081569776952 -0.0000128634926416 -0.0000063275852909 -0.0000036099899068 -0.0000081569776952 -0.0000128634926416 -0.0000063275852909 -0.0000000000000000 -0.0000000000000000 -0.0000000049556994 -0.0000000000000000 -0.0000000000000000 -0.0000000163655072  0.0000000000000000 -0.0000000000000000 -0.0000001560437110 -0.0000000000000000  0.0000000000000000 -0.0000004368647169 -0.0000000000000000  0.0000000000000000  0.0000000049556994 -0.0000000000000000  0.0000000000000000  0.0000000163655072  0.0000000000000000 -0.0000000000000000  0.0000001560437110 -0.0000000000000000  0.0000000000000000  0.0000004368647169 -0.0000000007444999 -0.0000000007444999  0.0000000014889997
 -0.0000000000000000 -0.0000000000000000 -0.0000000000000000 -0.0000000000000000 -0.0000000000000000 -0.0000000000000000 -0.0000000000000000 -0.0000000000000000 -0.0000000000000000 -0.0000000000000000 -0.0000000000000000 -0.0000000000000000 -0.0000000000000000 -0.0000000000000000  0.0000000000000000 -0.0000000000000000 -0.0000000000000000 -0.0000000000000000  0.0000000000000000 -0.0000000000000000 -0.0000000000000000  0.0000000000000000  0.0000000000000000 -0.0000000000000000  0.0000000000000000  0.0000000000000000  0.0000000000000000 -0.0000000000000000  0.0000000000000000 -0.0000000000000000  0.0000000000000000  0.0000000000000000 -0.0000000000000000 -0.0000000000000000  0.0000000000000000  0.0000000000000000
  0.0000000000000000  0.0000000000000000  0.0000000000000000  0.0000000000000000  0.0000000000000000  0.0000000000000000  0.0000000000000000  0.0000000000000000  0.0000000000000000  0.0000000000000000  0.0000000000000000  0.0000000000000000  0.0000000000000000  0.0000000000000000 -0.0000000000000000  0.0000000000000000  0.0000000000000000  0.0000000000000000 -0.0000000000000000  0.0000000000000000  0.0000000000000000 -0.0000000000000000 -0.0000000000000000  0.0000000000000000 -0.0000000000000000 -0.0000000000000000 -0.0000000000000000  0.0000000000000000 -0.0000000000000000  0.0000000000000000 -0.0000000000000000 -0.0000000000000000  0.0000000000000000  0.0000000000000000 -0.0000000000000000 -0.0000000000000000  0.0000000000000000
  0.0000000000000000  0.0000000000000000  0.0000000000000000  0.0000000000000000  0.0000000000000000  0.0000000000000000  0.0000000000000000  0.0000000000000000  0.0000000000000000  0.0000000000000000  0.0000000000000000  0.0000000000000000  0.0000000000000000  0.0000000000000000 -0.0000000000000000  0.0000000000000000  0.0000000000000000  0.0000000000000000 -0.0000000000000000  0.0000000000000000  0.0000000000000000 -0.0000000000000000 -0.0000000000000000  0.0000000000000000 -0.0000000000000000 -0.0000000000000000 -0.0000000000000000  0.0000000000000000 -0.0000000000000000  0.0000000000000000 -0.0000000000000000 -0.0000000000000000  0.0000000000000000  0.0000000000000000 -0.0000000000000000 -0.0000000000000000  0.0000000000000000  0.0000000000000000
 -0.0000096564063920 -0.0000218191999391 -0.0000344087146427 -0.0000169257357017 -0.0000096564063920 -0.0000218191999391 -0.0000344087146427 -0.0000169257357017 -0.0000000000000000 -0.0000000000000000 -0.0000000132560613 -0.0000000000000000 -0.0000000000000000 -0.0000000437762964  0.0000000000000000 -0.0000000000000000 -0.0000004174032414 -0.0000000000000000  0.0000000000000000 -0.0000011685748030 -0.0000000000000000  0.0000000000000000  0.0000000132560613 -0.0000000000000000  0.0000000000000000  0.0000000437762964  0.0000000000000000 -0.0000000000000000  0.0000004174032414 -0.0000000000000000  0.0000000000000000  0.0000011685748030 -0.0000000019914718 -0.0000000019914718  0.0000000039829436  0.0000000000000000 -0.0000000000000000 -0.0000000000000000  0.0000000106540249
 -0.0000096564063920 -0.0000218191999391 -0.0000344087146427 -0.0000169257357017 -0.0000096564063920 -0.0000218191999391 -0.0000344087146427 -0.0000169257357017 -0.0000000000000000 -0.0000000000000000 -0.0000000132560613 -0.0000000000000000 -0.0000000000000000 -0.0000000437762964  0.0000000000000000 -0.0000000000000000 -0.0000004174032414 -0.0000000000000000  0.0000000000000000 -0.0000011685748030 -0.0000000000000000  0.0000000000000000  0.0000000132560613 -0.0000000000000000  0.0000000000000000  0.0000000437762964  0.0000000000000000 -0.0000000000000000  0.0000004174032414 -0.0000000000000000  0.0000000000000000  0.0000011685748030 -0.0000000019914718 -0.0000000019914718  0.0000000039829436  0.0000000000000000 -0.0000000000000000 -0.0000000000000000  0.0000000106540249  0.0000000106540249
  0.0000193128127840  0.0000436383998783  0.0000688174292854  0.0000338514714035  0.0000193128127840  0.0000436383998783  0.0000688174292854  0.0000338514714035  0.0000000000000000  0.0000000000000000  0.0000000265121226  0.0000000000000000  0.0000000000000000  0.0000000875525928 -0.0000000000000000  0.0000000000000000  0.0000008348064828  0.0000000000000000 -0.0000000000000000  0.0000023371496061  0.0000000000000000 -0.0000000000000000 -0.0000000265121226  0.0000000000000000 -0.0000000000000000 -0.0000000875525928 -0.0000000000000000  0.0000000000000000 -0.0000008348064828  0.0000000000000000 -0.0000000000000000 -0.0000023371496061  0.0000000039829436  0.0000000039829436 -0.0000000079658873 -0.0000000000000000  0.0000000000000000  0.0000000000000000 -0.0000000213080499 -0.0000000213080499  0.0000000426160997
  0.0000000000000000  0.0000000000000000  0.0000000000000000  0.0000000000000000  0.0000000000000000  0.0000000000000000  0.0000000000000000  0.0000000000000000  0.0000000000000000  0.0000000000000000  0.0000000000000000  0.0000000000000000  0.0000000000000000  0.0000000000000000 -0.0000000000000000  0.0000000000000000  0.0000000000000000  0.0000000000000000 -0.0000000000000000  0.0000000000000000  0.0000000000000000 -0.0000000000000000 -0.0000000000000000  0.0000000000000000 -0.0000000000000000 -0.0000000000000000 -0.0000000000000000  0.0000000000000000 -0.0000000000000000  0.0000000000000000 -0.0000000000000000 -0.0000000000000000  0.0000000000000000  0.0000000000000000 -0.0000000000000000 -0.0000000000000000  0.0000000000000000  0.0000000000000000 -0.0000000000000000 -0.0000000000000000  0.0000000000000000  0.0000000000000000
  0.0000000000000000  0.0000000000000000  0.0000000000000000  0.0000000000000000  0.0000000000000000  0.0000000000000000  0.0000000000000000  0.0000000000000000  0.0000000000000000  0.0000000000000000  0.0000000000000000  0.0000000000000000  0.0000000000000000  0.0000000000000000 -0.0000000000000000  0.0000000000000000  0.0000000000000000  0.0000000000000000 -0.0000000000000000  0.0000000000000000  0.0000000000000000 -0.0000000000000000 -0.0000000000000000  0.0000000000000000 -0.0000000000000000 -0.0000000000000000 -0.0000000000000000  0.0000000000000000 -0.0000000000000000  0.0000000000000000 -0.0000000000000000 -0.0000000000000000  0.0000000000000000  0.0000000000000000 -0.0000000000000000 -0.0000000000000000  0.0000000000000000  0.0000000000000000 -0.0000000000000000 -0.0000000000000000  0.0000000000000000  0.0000000000000000  0.0000000000000000
 -0.0000000000000000 -0.0000000000000000 -0.0000000000000000 -0.0000000000000000 -0.0000000000000000 -0.0000000000000000 -0.0000000000000000 -0.0000000000000000 -0.0000000000000000 -0.0000000000000000 -0.0000000000000000 -0.0000000000000000 -0.0000000000000000 -0.0000000000000000  0.0000000000000000 -0.0000000000000000 -0.0000000000000000 -0.0000000000000000  0.0000000000000000 -0.0000000000000000 -0.0000000000000000  0.0000000000000000  0.0000000000000000 -0.0000000000000000  0.0000000000000000  0.0000000000000000  0.0000000000000000 -0.0000000000000000  0.0000000000000000 -0.0000000000000000  0.0000000000000000  0.0000000000000000 -0.0000000000000000 -0.0000000000000000  0.0000000000000000  0.0000000000000000 -0.0000000000000000 -0.0000000000000000  0.0000000000000000  0.0000000000000000 -0.0000000000000000 -0.0000000000000000 -0.0000000000000000  0.0000000000000000
  0.0000018049949534  0.0000040784888476  0.0000064317463208  0.0000031637926455  0.0000018049949534  0.0000040784888476  0.0000064317463208  0.0000031637926455  0.0000000000000000  0.0000000000000000  0.0000000024778497  0.0000000000000000  0.0000000000000000  0.0000000081827536 -0.0000000000000000  0.0000000000000000  0.0000000780218555  0.0000000000000000 -0.0000000000000000  0.0000002184323584  0.0000000000000000 -0.0000000000000000 -0.0000000024778497  0.0000000000000000 -0.0000000000000000 -0.0000000081827536 -0.0000000000000000  0.0000000000000000 -0.0000000780218555  0.0000000000000000 -0.0000000000000000 -0.0000002184323584  0.0000000003722499  0.0000000003722499 -0.0000000007444999 -0.0000000000000000  0.0000000000000000  0.0000000000000000 -0.0000000019914718 -0.0000000019914718  0.0000000039829436  0.0000000000000000  0.0000000000000000 -0.0000000000000000  0.0000000003722499
  0.0000018049949534  0.0000040784888476  0.0000064317463208  0.0000031637926455  0.0000018049949534  0.0000040784888476  0.0000064317463208  0.0000031637926455  0.0000000000000000  0.0000000000000000  0.0000000024778497  0.0000000000000000  0.0000000000000000  0.0000000081827536 -0.0000000000000000  0.0000000000000000  0.0000000780218555  0.0000000000000000 -0.0000000000000000  0.0000002184323584  0.0000000000000000 -0.0000000000000000 -0.0000000024778497  0.0000000000000000 -0.0000000000000000 -0.0000000081827536 -0.0000000000000000  0.0000000000000000 -0.0000000780218555  0.0000000000000000 -0.0000000000000000 -0.0000002184323584  0.0000000003722499  0.0000000003722499 -0.0000000007444999 -0.0000000000000000  0.0000000000000000  0.0000000000000000 -0.0000000019914718 -0.0000000019914718  0.0000000039829436  0.0000000000000000  0.0000000000000000 -0.0000000000000000  0.0000000003722499  0.0000000003722499
 -0.0000036099899068 -0.0000081569776952 -0.0000128634926416 -0.0000063275852909 -0.0000036099899068 -0.0000081569776952 -0.0000128634926416 -0.0000063275852909 -0.0000000000000000 -0.0000000000000000 -0.0000000049556994 -0.0000000000000000 -0.0000000000000000 -0.0000000163655072  0.0000000000000000 -0.0000000000000000 -0.0000001560437110 -0.0000000000000000  0.0000000000000000 -0.0000004368647169 -0.0000000000000000  0.0000000000000000  0.0000000049556994 -0.0000000000000000  0.0000000000000000  0.0000000163655072  0.0000000000000000 -0.0000000000000000  0.0000001560437110 -0.0000000000000000  0.0000000000000000  0.0000004368647169 -0.0000000007444999 -0.0000000007444999  0.0000000014889997  0.0000000000000000 -0.0000000000000000 -0.0000000000000000  0.0000000039829436  0.0000000039829436 -0.0000000079658873 -0.0000000000000000 -0.0000000000000000  0.0000000000000000 -0.0000000007444999 -0.0000000007444999  0.0000000014889997
 -0.0000000000000000 -0.0000000000000000 -0.0000000000000000 -0.0000000000000000 -0.0000000000000000 -0.0000000000000000 -0.0000000000000000 -0.0000000000000000 -0.0000000000000000 -0.0000000000000000 -0.0000000000000000 -0.0000000000000000 -0.0000000000000000 -0.0000000000000000  0.0000000000000000 -0.0000000000000000 -0.0000000000000000 -0.0000000000000000  0.0000000000000000 -0.0000000000000000 -0.0000000000000000  0.0000000000000000  0.0000000000000000 -0.0000000000000000  0.0000000000000000  0.0000000000000000  0.0000000000000000 -0.0000000000000000  0.0000000000000000 -0.0000000000000000  0.0000000000000000  0.0000000000000000 -0.0000000000000000 -0.0000000000000000  0.0000000000000000  0.0000000000000000 -0.0000000000000000 -0.0000000000000000  0.0000000000000000  0.0000000000000000 -0.0000000000000000 -0.0000000000000000 -0.0000000000000000  0.0000000000000000 -0.0000000000000000 -0.0000000000000000  0.0000000000000000  0.0000000000000000
  0.0000000000000000  0.0000000000000000  0.0000000000000000  0.0000000000000000  0.0000000000000000  0.0000000000000000  0.0000000000000000  0.0000000000000000  0.0000000000000000  0.0000000000000000  0.0000000000000000  0.0000000000000000  0.0000000000000000  0.0000000000000000 -0.0000000000000000  0.0000000000000000  0.0000000000000000  0.0000000000000000 -0.0000000000000000  0.0000000000000000  0.0000000000000000 -0.0000000000000000 -0.0000000000000000  0.0000000000000000 -0.0000000000000000 -0.0000000000000000 -0.0000000000000000  0.0000000000000000 -0.0000000000000000  0.0000000000000000 -0.0000000000000000 -0.0000000000000000  0.0000000000000000  0.0000000000000000 -0.0000000000000000 -0.0000000000000000  0.0000000000000000  0.0000000000000000 -0.0000000000000000 -0.0000000000000000  0.0000000000000000  0.0000000000000000  0.0000000000000000 -0.0000000000000000  0.0000000000000000  0.0000000000000000 -0.0000000000000000 -0.0000000000000000  0.0000000000000000
  0.0000000000000000  0.0000000000000000  0.0000000000000001  0.0000000000000000  0.0000000000000000  0.0000000000000000  0.0000000000000001  0.0000000000000000  0.0000000000000000  0.0000000000000000  0.0000000000000000  0.0000000000000000  0.0000000000000000  0.0000000000000000 -0.0000000000000000  0.0000000000000000  0.0000000000000000  0.0000000000000000 -0.0000000000000000  0.0000000000000000  0.0000000000000000 -0.0000000000000000 -0.0000000000000000  0.0000000000000000 -0.0000000000000000 -0.0000000000000000 -0.0000000000000000  0.0000000000000000 -0.0000000000000000  0.0000000000000000 -0.0000000000000000 -0.0000000000000000  0.0000000000000000  0.0000000000000000 -0.0000000000000000 -0.0000000000000000  0.0000000000000000  0.0000000000000000 -0.0000000000000000 -0.0000000000000000  0.0000000000000000  0.0000000000000000  0.0000000000000000 -0.0000000000000000  0.0000000000000000  0.0000000000000000 -0.0000000000000000 -0.0000000000000000  0.0000000000000000  0.0000000000000000
 -0.0000096564063920 -0.0000218191999391 -0.0000344087146427 -0.0000169257357017 -0.0000096564063920 -0.0000218191999391 -0.0000344087146427 -0.0000169257357017 -0.0000000000000000 -0.0000000000000000 -0.0000000132560613 -0.0000000000000000 -0.0000000000000000 -0.0000000437762964  0.0000000000000000 -0.0000000000000000 -0.0000004174032414 -0.0000000000000000  0.0000000000000000 -0.0000011685748030 -0.0000000000000000  0.0000000000000000  0.0000000132560613 -0.0000000000000000  0.0000000000000000  0.0000000437762964  0.0000000000000000 -0.0000000000000000  0.0000004174032414 -0.0000000000000000  0.0000000000000000  0.0000011685748030 -0.0000000019914718 -0.0000000019914718  0.0000000039829436  0.0000000000000000 -0.0000000000000000 -0.0000000000000000  0.0000000106540249  0.0000000106540249 -0.0000000213080499 -0.0000000000000000 -0.0000000000000000  0.0000000000000000 -0.0000000019914718 -0.0000000019914718  0.0000000039829436  0.0000000000000000 -0.0000000000000000 -0.0000000000000000  0.0000000106540249
 -0.0000096564063920 -0.0000218191999391 -0.0000344087146427 -0.0000169257357017 -0.0000096564063920 -0.0000218191999391 -0.0000344087146427 -0.0000169257357017 -0.0000000000000000 -0.0000000000000000 -0.0000000132560613 -0.0000000000000000 -0.0000000000000000 -0.0000000437762964  0.0000000000000000 -0.0000000000000000 -0.0000004174032414 -0.0000000000000000  0.0000000000000000 -0.0000011685748030 -0.0000000000000000  0.0000000000000000  0.0000000132560613 -0.0000000000000000  0.0000000000000000  0.0000000437762964  0.0000000000000000 -0.0000000000000000  0.0000004174032414 -0.0000000000000000  0.0000000000000000  0.0000011685748030 -0.0000000019914718 -0.0000000019914718  0.0000000039829436  0.0000000000000000 -0.0000000000000000 -0.0000000000000000  0.0000000106540249  0.0000000106540249 -0.0000000213080499 -0.0000000000000000 -0.0000000000000000  0.0000000000000000 -0.0000000019914718 -0.0000000019914718  0.0000000039829436  0.0000000000000000 -0.0000000000000000 -0.0000000000000000  0.0000000106540249  0.0000000106540249
  0.0000193128127840  0.0000436383998782  0.0000688174292854  0.0000338514714034  0.0000193128127839  0.0000436383998782  0.0000688174292854  0.0000338514714034  0.0000000000000000  0.0000000000000000  0.0000000265121226  0.0000000000000000  0.0000000000000000  0.0000000875525928 -0.0000000000000000  0.0000000000000000  0.0000008348064828  0.0000000000000000 -0.0000000000000000  0.0000023371496061  0.0000000000000000 -0.0000000000000000 -0.0000000265121226  0.0000000000000000 -0.0000000000000000 -0.0000000875525928 -0.0000000000000000  0.0000000000000000 -0.0000008348064828  0.0000000000000000 -0.0000000000000000 -0.0000023371496061  0.0000000039829436  0.0000000039829436 -0.0000000079658873 -0.0000000000000000  0.0000000000000000  0.0000000000000000 -0.0000000213080499 -0.0000000213080499  0.0000000426160997  0.0000000000000000  0.0000000000000000 -0.0000000000000000  0.0000000039829436  0.0000000039829436 -0.0000000079658873 -0.0000000000000000  0.0000000000000000  0.0000000000000000 -0.0000000213080499 -0.0000000213080499  0.0000000426160997
  0.0000000000000000  0.0000000000000000  0.0000000000000000  0.0000000000000000  0.0000000000000000  0.0000000000000000  0.0000000000000000  0.0000000000000000  0.0000000000000000  0.0000000000000000  0.0000000000000000  0.0000000000000000  0.0000000000000000  0.0000000000000000 -0.0000000000000000  0.0000000000000000  0.0000000000000000  0.0000000000000000 -0.0000000000000000  0.0000000000000000  0.0000000000000000 -0.0000000000000000 -0.0000000000000000  0.0000000000000000 -0.0000000000000000 -0.0000000000000000 -0.0000000000000000  0.0000000000000000 -0.0000000000000000  0.0000000000000000 -0.0000000000000000 -0.0000000000000000  0.0000000000000000  0.0000000000000000 -0.0000000000000000 -0.0000000000000000  0.0000000000000000  0.0000000000000000 -0.0000000000000000 -0.0000000000000000  0.0000000000000000  0.0000000000000000  0.0000000000000000 -0.0000000000000000  0.0000000000000000  0.0000000000000000 -0.0000000000000000 -0.0000000000000000  0.0000000000000000  0.0000000000000000 -0.0000000000000000 -0.0000000000000000  0.0000000000000000  0.0000000000000000
 -0.0000000000000000 -0.0000000000000000 -0.0000000000000000 -0.0000000000000000 -0.0000000000000000 -0.0000000000000000 -0.0000000000000000 -0.0000000000000000 -0.0000000000000000 -0.0000000000000000 -0.0000000000000000 -0.0000000000000000 -0.0000000000000000 -0.0000000000000000  0.0000000000000000 -0.0000000000000000 -0.0000000000000000 -0.0000000000000000  0.0000000000000000 -0.0000000000000000 -0.0000000000000000  0.0000000000000000  0.0000000000000000 -0.0000000000000000  0.0000000000000000  0.0000000000000000  0.0000000000000000 -0.0000000000000000  0.0000000000000000 -0.0000000000000000  0.0000000000000000  0.0000000000000000 -0.0000000000000000 -0.0000000000000000  0.0000000000000000  0.0000000000000000 -0.0000000000000000 -0.0000000000000000  0.0000000000000000  0.0000000000000000 -0.0000000000000000 -0.0000000000000000 -0.0000000000000000  0.0000000000000000 -0.0000000000000000 -0.0000000000000000  0.0000000000000000  0.0000000000000000 -0.0000000000000000 -0.0000000000000000  0.0000000000000000  0.0000000000000000 -0.0000000000000000 -0.0000000000000000  0.0000000000000000
 -0.0000000000000000 -0.0000000000000000 -0.0000000000000000 -0.0000000000000000 -0.0000000000000000 -0.0000000000000000 -0.0000000000000000 -0.0000000000000000 -0.0000000000000000 -0.0000000000000000 -0.0000000000000000 -0.0000000000000000 -0.0000000000000000 -0.0000000000000000  0.0000000000000000 -0.0000000000000000 -0.0000000000000000 -0.0000000000000000  0.0000000000000000 -0.0000000000000000 -0.0000000000000000  0.0000000000000000  0.0000000000000000 -0.0000000000000000  0.0000000000000000  0.0000000000000000  0.0000000000000000 -0.0000000000000000  0.0000000000000000 -0.0000000000000000  0.0000000000000000  0.0000000000000000 -0.0000000000000000 -0.0000000000000000  0.0000000000000000  0.0000000000000000 -0.0000000000000000 -0.0000000000000000  0.0000000000000000  0.0000000000000000 -0.0000000000000000 -0.0000000000000000 -0.0000000000000000  0.0000000000000000 -0.0000000000000000 -0.0000000000000000  0.0000000000000000  0.0000000000000000 -0.0000000000000000 -0.0000000000000000  0.0000000000000000  0.0000000000000000 -0.0000000000000000 -0.0000000000000000  0.0000000000000000  0.0000000000000000
  0.0000000000000000  0.0000000000000000  0.0000000000000000  0.0000000000000000  0.0000000000000000  0.0000000000000000  0.0000000000000000  0.0000000000000000  0.0000000000000000  0.0000000000000000  0.0000000000000000  0.0000000000000000  0.0000000000000000  0.0000000000000000 -0.0000000000000000  0.0000000000000000  0.0000000000000000  0.0000000000000000 -0.0000000000000000  0.0000000000000000  0.0000000000000000 -0.0000000000000000 -0.0000000000000000  0.0000000000000000 -0.0000000000000000 -0.0000000000000000 -0.0000000000000000  0.0000000000000000 -0.0000000000000000  0.0000000000000000 -0.0000000000000000 -0.0000000000000000  0.0000000000000000  0.0000000000000000 -0.0000000000000000 -0.0000000000000000  0.0000000000000000  0.0000000000000000 -0.0000000000000000 -0.0000000000000000  0.0000000000000000  0.0000000000000000  0.0000000000000000 -0.0000000000000000  0.0000000000000000  0.0000000000000000 -0.0000000000000000 -0.0000000000000000  0.0000000000000000  0.0000000000000000 -0.0000000000000000 -0.0000000000000000  0.0000000000000000  0.0000000000000000 -0.0000000000000000 -0.0000000000000000  0.0000000000000000
  0.0000000000000000  0.0000000000000000  0.0000000000000000  0.0000000000000000  0.0000000000000000  0.0000000000000000  0.0000000000000000  0.0000000000000000  0.0000000000000000  0.0000000000000000  0.0000000000000000  0.0000000000000000  0.0000000000000000  0.0000000000000000 -0.0000000000000000  0.0000000000000000  0.0000000000000000  0.0000000000000000 -0.0000000000000000  0.0000000000000000  0.0000000000000000 -0.0000000000000000 -0.0000000000000000  0.0000000000000000 -0.0000000000000000 -0.0000000000000000 -0.0000000000000000  0.0000000000000000 -0.0000000000000000  0.0000000000000000 -0.0000000000000000 -0.0000000000000000  0.0000000000000000  0.0000000000000000 -0.0000000000000000 -0.0000000000000000  0.0000000000000000  0.0000000000000000 -0.0000000000000000 -0.0000000000000000  0.0000000000000000  0.0000000000000000  0.0000000000000000 -0.0000000000000000  0.0000000000000000  0.0000000000000000 -0.0000000000000000 -0.0000000000000000  0.0000000000000000  0.0000000000000000 -0.0000000000000000 -0.0000000000000000  0.0000000000000000  0.0000000000000000 -0.0000000000000000 -0.0000000000000000  0.0000000000000000  0.0000000000000000
  0.0000001903175415  0.0000004300333190  0.0000006781593185  0.0000003335883222  0.0000001903175415  0.0000004300333190  0.0000006781593185  0.0000003335883222  0.0000000000000000  0.0000000000000000  0.0000000002612629  0.0000000000000000  0.0000000000000000  0.0000000008627844 -0.0000000000000000  0.0000000000000000  0.0000000082265758  0.0000000000000000 -0.0000000000000000  0.0000000230313716  0.0000000000000000 -0.0000000000000000 -0.0000000002612629  0.0000000000000000 -0.0000000000000000 -0.0000000008627844 -0.0000000000000000  0.0000000000000000 -0.0000000082265758  0.0000000000000000 -0.0000000000000000 -0.0000000230313716  0.0000000000392498  0.0000000000392498 -0.0000000000784996 -0.0000000000000000  0.0000000000000000  0.0000000000000000 -0.0000000002099795 -0.0000000002099795  0.0000000004199591  0.0000000000000000  0.0000000000000000 -0.0000000000000000  0.0000000000392498  0.0000000000392498 -0.0000000000784996 -0.0000000000000000  0.0000000000000000  0.0000000000000000 -0.0000000002099795 -0.0000000002099795  0.0000000004199591  0.0000000000000000 -0.0000000000000000 -0.0000000000000000  0.0000000000000000  0.0000000000000000  0.0000000000041385
 -0.0000000000000000 -0.0000000000000000 -0.0000000000000000 -0.0000000000000000 -0.0000000000000000 -0.0000000000000000 -0.0000000000000000 -0.0000000000000000 -0.0000000000000000 -0.0000000000000000 -0.0000000000000000 -0.0000000000000000 -0.0000000000000000 -0.0000000000000000  0.0000000000000000 -0.0000000000000000 -0.0000000000000000 -0.0000000000000000  0.0000000000000000 -0.0000000000000000 -0.0000000000000000  0.0000000000000000  0.0000000000000000 -0.0000000000000000  0.0000000000000000  0.0000000000000000  0.0000000000000000 -0.0000000000000000  0.0000000000000000 -0.0000000000000000  0.0000000000000000  0.0000000000000000 -0.0000000000000000 -0.0000000000000000  0.0000000000000000  0.0000000000000000 -0.0000000000000000 -0.0000000000000000  0.0000000000000000  0.0000000000000000 -0.0000000000000000 -0.0000000000000000 -0.0000000000000000  0.0000000000000000 -0.0000000000000000 -0.0000000000000000  0.0000000000000000  0.0000000000000000 -0.0000000000000000 -0.0000000000000000  0.0000000000000000  0.0000000000000000 -0.0000000000000000 -0.0000000000000000  0.0000000000000000  0.0000000000000000 -0.0000000000000000 -0.0000000000000000 -0.0000000000000000  0.0000000000000000
 -0.0000002854763123 -0.0000006450499785 -0.0000010172389777 -0.0000005003824834 -0.0000002854763123 -0.0000006450499785 -0.0000010172389777 -0.0000005003824834 -0.0000000000000000 -0.0000000000000000 -0.0000000003918944 -0.0000000000000000 -0.0000000000000000 -0.0000000012941766  0.0000000000000000 -0.0000000000000000 -0.0000000123398636 -0.0000000000000000  0.0000000000000000 -0.0000000345470573 -0.0000000000000000  0.0000000000000000  0.0000000003918944 -0.0000000000000000  0.0000000000000000  0.0000000012941766  0.0000000000000000 -0.0000000000000000  0.0000000123398636 -0.0000000000000000  0.0000000000000000  0.0000000345470573 -0.0000000000588747 -0.0000000000588747  0.0000000001177494  0.0000000000000000 -0.0000000000000000 -0.0000000000000000  0.0000000003149693  0.0000000003149693 -0.0000000006299386 -0.0000000000000000 -0.0000000000000000  0.0000000000000000 -0.0000000000588747 -0.0000000000588747  0.0000000001177494  0.0000000000000000 -0.0000000000000000 -0.0000000000000000  0.0000000003149693  0.0000000003149693 -0.0000000006299386 -0.0000000000000000  0.0000000000000000  0.0000000000000000 -0.0000000000000000 -0.0000000000000000 -0.0000000000062077  0.0000000000000000  0.0000000000093116
 -0.0000000000000000 -0.0000000000000000 -0.0000000000000000 -0.0000000000000000 -0.0000000000000000 -0.0000000000000000 -0.0000000000000000 -0.0000000000000000 -0.0000000000000000 -0.0000000000000000 -0.0000000000000000 -0.0000000000000000 -0.0000000000000000 -0.0000000000000000  0.0000000000000000 -0.0000000000000000 -0.0000000000000000 -0.0000000000000000  0.0000000000000000 -0.0000000000000000 -0.0000000000000000  0.0000000000000000  0.0000000000000000 -0.0000000000000000  0.0000000000000000  0.0000000000000000  0.0000000000000000 -0.0000000000000000  0.0000000000000000 -0.0000000000000000  0.0000000000000000  0.0000000000000000 -0.0000000000000000 -0.0000000000000000  0.0000000000000000  0.0000000000000000 -0.0000000000000000 -0.0000000000000000  0.0000000000000000  0.0000000000000000 -0.0000000000000000 -0.0000000000000000 -0.0000000000000000  0.0000000000000000 -0.0000000000000000 -0.0000000000000000  0.0000000000000000  0.0000000000000000 -0.0000000000000000 -0.0000000000000000  0.0000000000000000  0.0000000000000000 -0.0000000000000000 -0.0000000000000000  0.0000000000000000  0.0000000000000000 -0.0000000000000000 -0.0000000000000000 -0.0000000000000000  0.0000000000000000  0.0000000000000000  0.0000000000000000
 -0.0000002854763123 -0.0000006450499785 -0.0000010172389777 -0.0000005003824834 -0.0000002854763123 -0.0000006450499785 -0.0000010172389777 -0.0000005003824834 -0.0000000000000000 -0.0000000000000000 -0.0000000003918944 -0.0000000000000000 -0.0000000000000000 -0.0000000012941766  0.0000000000000000 -0.0000000000000000 -0.0000000123398636 -0.0000000000000000  0.0000000000000000 -0.0000000345470573 -0.0000000000000000  0.0000000000000000  0.0000000003918944 -0.0000000000000000  0.0000000000000000  0.0000000012941766  0.0000000000000000 -0.0000000000000000  0.0000000123398636 -0.0000000000000000  0.0000000000000000  0.0000000345470573 -0.0000000000588747 -0.0000000000588747  0.0000000001177494  0.0000000000000000 -0.0000000000000000 -0.0000000000000000  0.0000000003149693  0.0000000003149693 -0.0000000006299386 -0.0000000000000000 -0.0000000000000000  0.0000000000000000 -0.0000000000588747 -0.0000000000588747  0.0000000001177494  0.0000000000000000 -0.0000000000000000 -0.0000000000000000  0.0000000003149693  0.0000000003149693 -0.0000000006299386 -0.0000000000000000  0.0000000000000000  0.0000000000000000 -0.0000000000000000 -0.0000000000000000 -0.0000000000062077  0.0000000000000000  0.0000000000093116  0.0000000000000000  0.0000000000093116
 -0.0000000000000000 -0.0000000000000000 -0.0000000000000000 -0.0000000000000000 -0.0000000000000000 -0.0000000000000000 -0.0000000000000000 -0.0000000000000000 -0.0000000000000000 -0.0000000000000000 -0.0000000000000000 -0.0000000000000000 -0.0000000000000000 -0.0000000000000000  0.0000000000000000 -0.0000000000000000 -0.0000000000000000 -0.0000000000000000  0.0000000000000000 -0.0000000000000000 -0.0000000000000000  0.0000000000000000  0.0000000000000000 -0.0000000000000000  0.0000000000000000  0.0000000000000000  0.0000000000000000 -0.0000000000000000  0.0000000000000000 -0.0000000000000000  0.0000000000000000  0.0000000000000000 -0.0000000000000000 -0.0000000000000000  0.0000000000000000  0.0000000000000000 -0.0000000000000000 -0.0000000000000000  0.0000000000000000  0.0000000000000000 -0.0000000000000000 -0.0000000000000000 -0.0000000000000000  0.0000000000000000 -0.0000000000000000 -0.0000000000000000  0.0000000000000000  0.0000000000000000 -0.0000000000000000 -0.0000000000000000  0.0000000000000000  0.0000000000000000 -0.0000000000000000 -0.0000000000000000  0.0000000000000000  0.0000000000000000 -0.0000000000000000 -0.0000000000000000 -0.0000000000000000  0.0000000000000000  0.0000000000000000  0.0000000000000000  0.0000000000000000  0.0000000000000000
  0.0000000000000000  0.0000000000000000  0.0000000000000000  0.0000000000000000  0.0000000000000000  0.0000000000000000  0.0000000000000000  0.0000000000000000  0.0000000000000000  0.0000000000000000  0.0000000000000000  0.0000000000000000  0.0000000000000000  0.0000000000000000 -0.0000000000000000  0.0000000000000000  0.0000000000000000  0.0000000000000000 -0.0000000000000000  0.0000000000000000  0.0000000000000000 -0.0000000000000000 -0.0000000000000000  0.0000000000000000 -0.0000000000000000 -0.0000000000000000 -0.0000000000000000  0.0000000000000000 -0.0000000000000000  0.0000000000000000 -0.0000000000000000 -0.0000000000000000  0.0000000000000000  0.0000000000000000 -0.0000000000000000 -0.0000000000000000  0.0000000000000000  0.0000000000000000 -0.0000000000000000 -0.0000000000000000  0.0000000000000000  0.0000000000000000  0.0000000000000000 -0.0000000000000000  0.0000000000000000  0.0000000000000000 -0.0000000000000000 -0.0000000000000000  0.0000000000000000  0.0000000000000000 -0.0000000000000000 -0.0000000000000000  0.0000000000000000  0.0000000000000000 -0.0000000000000000 -0.0000000000000000  0.0000000000000000  0.0000000000000000  0.0000000000000000 -0.0000000000000000 -0.0000000000000000 -0.0000000000000000 -0.0000000000000000 -0.0000000000000000  0.0000000000000000
 -0.0000000000000000 -0.0000000000000000 -0.0000000000000000 -0.0000000000000000 -0.0000000000000000 -0.0000000000000000 -0.0000000000000000 -0.0000000000000000 -0.0000000000000000 -0.0000000000000000 -0.0000000000000000 -0.0000000000000000 -0.0000000000000000 -0.0000000000000000  0.0000000000000000 -0.0000000000000000 -0.0000000000000000 -0.0000000000000000  0.0000000000000000 -0.0000000000000000 -0.0000000000000000  0.0000000000000000  0.0000000000000000 -0.0000000000000000  0.0000000000000000  0.0000000000000000  0.0000000000000000 -0.0000000000000000  0.0000000000000000 -0.0000000000000000  0.0000000000000000  0.0000000000000000 -0.0000000000000000 -0.0000000000000000  0.0000000000000000  0.0000000000000000 -0.0000000000000000 -0.0000000000000000  0.0000000000000000  0.0000000000000000 -0.0000000000000000 -0.0000000000000000 -0.0000000000000000  0.0000000000000000 -0.0000000000000000 -0.0000000000000000  0.0000000000000000  0.0000000000000000 -0.0000000000000000 -0.0000000000000000  0.0000000000000000  0.0000000000000000 -0.0000000000000000 -0.0000000000000000  0.0000000000000000  0.0000000000000000 -0.0000000000000000 -0.0000000000000000 -0.0000000000000000  0.0000000000000000  0.0000000000000000  0.0000000000000000  0.0000000000000000  0.0000000000000000 -0.0000000000000000  0.0000000000000000
  0.0000000000000000  0.0000000000000000  0.0000000000000000  0.0000000000000000  0.0000000000000000  0.0000000000000000  0.0000000000000000  0.0000000000000000  0.0000000000000000  0.0000000000000000  0.0000000000000000  0.0000000000000000  0.0000000000000000  0.0000000000000000 -0.0000000000000000  0.0000000000000000  0.0000000000000000  0.0000000000000000 -0.0000000000000000  0.0000000000000000  0.0000000000000000 -0.0000000000000000 -0.0000000000000000  0.0000000000000000 -0.0000000000000000 -0.0000000000000000 -0.0000000000000000  0.0000000000000000 -0.0000000000000000  0.0000000000000000 -0.0000000000000000 -0.0000000000000000  0.0000000000000000  0.0000000000000000 -0.0000000000000000 -0.0000000000000000  0.0000000000000000  0.0000000000000000 -0.0000000000000000 -0.0000000000000000  0.0000000000000000  0.0000000000000000  0.0000000000000000 -0.0000000000000000  0.0000000000000000  0.0000000000000000 -0.0000000000000000 -0.0000000000000000  0.0000000000000000  0.0000000000000000 -0.0000000000000000 -0.0000000000000000  0.0000000000000000  0.0000000000000000 -0.0000000000000000 -0.0000000000000000  0.0000000000000000  0.0000000000000000  0.0000000000000000 -0.0000000000000000 -0.0000000000000000 -0.0000000000000000 -0.0000000000000000 -0.0000000000000000  0.0000000000000000 -0.0000000000000000  0.0000000000000000
  0.0000000000000000  0.0000000000000000  0.0000000000000000  0.0000000000000000  0.0000000000000000  0.0000000000000000  0.0000000000000000  0.0000000000000000  0.0000000000000000  0.0000000000000000  0.0000000000000000  0.0000000000000000  0.0000000000000000  0.0000000000000000 -0.0000000000000000  0.0000000000000000  0.0000000000000000  0.0000000000000000 -0.0000000000000000  0.0000000000000000  0.0000000000000000 -0.0000000000000000 -0.0000000000000000  0.0000000000000000 -0.0000000000000000 -0.0000000000000000 -0.0000000000000000  0.0000000000000000 -0.0000000000000000  0.0000000000000000 -0.0000000000000000 -0.0000000000000000  0.0000000000000000  0.0000000000000000 -0.0000000000000000 -0.0000000000000000  0.0000000000000000  0.0000000000000000 -0.0000000000000000 -0.0000000000000000  0.0000000000000000  0.0000000000000000  0.0000000000000000 -0.0000000000000000  0.0000000000000000  0.0000000000000000 -0.0000000000000000 -0.0000000000000000  0.0000000000000000  0.0000000000000000 -0.0000000000000000 -0.0000000000000000  0.0000000000000000  0.0000000000000000 -0.0000000000000000 -0.0000000000000000  0.0000000000000000  0.0000000000000000  0.0000000000000000 -0.0000000000000000 -0.0000000000000000 -0.0000000000000000 -0.0000000000000000 -0.0000000000000000  0.0000000000000000 -0.0000000000000000  0.0000000000000000  0.0000000000000000
 -0.0000001903175415 -0.0000004300333190 -0.0000006781593185 -0.0000003335883222 -0.0000001903175415 -0.0000004300333190 -0.0000006781593185 -0.0000003335883222 -0.0000000000000000 -0.0000000000000000 -0.0000000002612629 -0.0000000000000000 -0.0000000000000000 -0.0000000008627844  0.0000000000000000 -0.0000000000000000 -0.0000000082265758 -0.0000000000000000  0.0000000000000000 -0.0000000230313716 -0.0000000000000000  0.0000000000000000  0.0000000002612629 -0.0000000000000000  0.0000000000000000  0.0000000008627844  0.0000000000000000 -0.0000000000000000  0.0000000082265758 -0.0000000000000000  0.0000000000000000  0.0000000230313716 -0.0000000000392498 -0.0000000000392498  0.0000000000784996  0.0000000000000000 -0.0000000000000000 -0.0000000000000000  0.0000000002099795  0.0000000002099795 -0.0000000004199591 -0.0000000000000000 -0.0000000000000000  0.0000000000000000 -0.0000000000392498 -0.0000000000392498  0.0000000000784996  0.0000000000000000 -0.0000000000000000 -0.0000000000000000  0.0000000002099795  0.0000000002099795 -0.0000000004199591 -0.0000000000000000  0.0000000000000000  0.0000000000000000 -0.0000000000000000 -0.0000000000000000 -0.0000000000041385  0.0000000000000000  0.0000000000062077  0.0000000000000000  0.0000000000062077  0.0000000000000000 -0.0000000000000000  0.0000000000000000 -0.0000000000000000 -0.0000000000000000  0.0000000000041385
 -0.0000000000000000 -0.0000000000000000 -0.0000000000000000 -0.0000000000000000 -0.0000000000000000 -0.0000000000000000 -0.0000000000000000 -0.0000000000000000 -0.0000000000000000 -0.0000000000000000 -0.0000000000000000 -0.0000000000000000 -0.0000000000000000 -0.0000000000000000  0.0000000000000000 -0.0000000000000000 -0.0000000000000000 -0.0000000000000000  0.0000000000000000 -0.0000000000000000 -0.0000000000000000  0.0000000000000000  0.0000000000000000 -0.0000000000000000  0.0000000000000000  0.0000000000000000  0.0000000000000000 -0.0000000000000000  0.0000000000000000 -0.0000000000000000  0.0000000000000000  0.0000000000000000 -0.0000000000000000 -0.0000000000000000  0.0000000000000000  0.0000000000000000 -0.0000000000000000 -0.0000000000000000  0.0000000000000000  0.0000000000000000 -0.0000000000000000 -0.0000000000000000 -0.0000000000000000  0.0000000000000000 -0.0000000000000000 -0.0000000000000000  0.0000000000000000  0.0000000000000000 -0.0000000000000000 -0.0000000000000000  0.0000000000000000  0.0000000000000000 -0.0000000000000000 -0.0000000000000000  0.0000000000000000  0.0000000000000000 -0.0000000000000000 -0.0000000000000000 -0.0000000000000000  0.0000000000000000  0.0000000000000000  0.0000000000000000  0.0000000000000000  0.0000000000000000 -0.0000000000000000  0.0000000000000000 -0.0000000000000000 -0.0000000000000000  0.0000000000000000  0.0000000000000000
  0.0000002854763123  0.0000006450499785  0.0000010172389777  0.0000005003824834  0.0000002854763123  0.0000006450499785  0.0000010172389777  0.0000005003824834  0.0000000000000000  0.0000000000000000  0.0000000003918944  0.0000000000000000  0.0000000000000000  0.0000000012941766 -0.0000000000000000  0.0000000000000000  0.0000000123398636  0.0000000000000000 -0.0000000000000000  0.0000000345470573  0.0000000000000000 -0.0000000000000000 -0.0000000003918944  0.0000000000000000 -0.0000000000000000 -0.0000000012941766 -0.0000000000000000  0.0000000000000000 -0.0000000123398636  0.0000000000000000 -0.0000000000000000 -0.0000000345470573  0.0000000000588747  0.0000000000588747 -0.0000000001177494 -0.0000000000000000  0.0000000000000000  0.0000000000000000 -0.0000000003149693 -0.0000000003149693  0.0000000006299386  0.0000000000000000  0.0000000000000000 -0.0000000000000000  0.0000000000588747  0.0000000000588747 -0.0000000001177494 -0.0000000000000000  0.0000000000000000  0.0000000000000000 -0.0000000003149693 -0.0000000003149693  0.0000000006299386  0.0000000000000000 -0.0000000000000000 -0.0000000000000000  0.0000000000000000  0.0000000000000000  0.0000000000062077 -0.0000000000000000 -0.0000000000093116 -0.0000000000000000 -0.0000000000093116 -0.0000000000000000  0.0000000000000000 -0.0000000000000000  0.0000000000000000  0.0000000000000000 -0.0000000000062077 -0.0000000000000000  0.0000000000093116
  0.0000000000000000  0.0000000000000000  0.0000000000000000  0.0000000000000000  0.0000000000000000  0.0000000000000000  0.0000000000000000  0.0000000000000000  0.0000000000000000  0.0000000000000000  0.0000000000000000  0.0000000000000000  0.0000000000000000  0.0000000000000000 -0.0000000000000000  0.0000000000000000  0.0000000000000000  0.0000000000000000 -0.0000000000000000  0.0000000000000000  0.0000000000000000 -0.0000000000000000 -0.0000000000000000  0.0000000000000000 -0.0000000000000000 -0.0000000000000000 -0.0000000000000000  0.0000000000000000 -0.0000000000000000  0.0000000000000000 -0.0000000000000000 -0.0000000000000000  0.0000000000000000  0.0000000000000000 -0.0000000000000000 -0.0000000000000000  0.0000000000000000  0.0000000000000000 -0.0000000000000000 -0.0000000000000000  0.0000000000000000  0.0000000000000000  0.0000000000000000 -0.0000000000000000  0.0000000000000000  0.0000000000000000 -0.0000000000000000 -0.0000000000000000  0.0000000000000000  0.0000000000000000 -0.0000000000000000 -0.0000000000000000  0.0000000000000000  0.0000000000000000 -0.0000000000000000 -0.0000000000000000  0.0000000000000000  0.0000000000000000  0.0000000000000000 -0.0000000000000000 -0.0000000000000000 -0.0000000000000000 -0.0000000000000000 -0.0000000000000000  0.0000000000000000 -0.0000000000000000  0.0000000000000000  0.0000000000000000 -0.0000000000000000 -0.0000000000000000  0.0000000000000000  0.0000000000000000
  0.0000002854763123  0.0000006450499785  0.0000010172389777  0.0000005003824834  0.0000002854763123  0.0000006450499785  0.0000010172389777  0.0000005003824834  0.0000000000000000  0.0000000000000000  0.0000000003918944  0.0000000000000000  0.0000000000000000  0.0000000012941766 -0.0000000000000000  0.0000000000000000  0.0000000123398636  0.0000000000000000 -0.0000000000000000  0.0000000345470573  0.0000000000000000 -0.0000000000000000 -0.0000000003918944  0.0000000000000000 -0.0000000000000000 -0.0000000012941766 -0.0000000000000000  0.0000000000000000 -0.0000000123398636  0.0000000000000000 -0.0000000000000000 -0.0000000345470573  0.0000000000588747  0.0000000000588747 -0.0000000001177494 -0.0000000000000000  0.0000000000000000  0.0000000000000000 -0.0000000003149693 -0.0000000003149693  0.0000000006299386  0.0000000000000000  0.0000000000000000 -0.0000000000000000  0.0000000000588747  0.0000000000588747 -0.0000000001177494 -0.0000000000000000  0.0000000000000000  0.0000000000000000 -0.0000000003149693 -0.0000000003149693  0.0000000006299386  0.0000000000000000 -0.0000000000000000 -0.0000000000000000  0.0000000000000000  0.0000000000000000  0.0000000000062077 -0.0000000000000000 -0.0000000000093116 -0.0000000000000000 -0.0000000000093116 -0.0000000000000000  0.0000000000000000 -0.0000000000000000  0.0000000000000000  0.0000000000000000 -0.0000000000062077 -0.0000000000000000  0.0000000000093116  0.0000000000000000  0.0000000000093116
 -0.0000000000000000 -0.0000000000000000 -0.0000000000000000 -0.0000000000000000 -0.0000000000000000 -0.0000000000000000 -0.0000000000000000 -0.0000000000000000 -0.0000000000000000 -0.0000000000000000 -0.0000000000000000 -0.0000000000000000 -0.0000000000000000 -0.0000000000000000  0.0000000000000000 -0.0000000000000000 -0.0000000000000000 -0.0000000000000000  0.0000000000000000 -0.0000000000000000 -0.0000000000000000  0.0000000000000000  0.0000000000000000 -0.0000000000000000  0.0000000000000000  0.0000000000000000  0.0000000000000000 -0.0000000000000000  0.0000000000000000 -0.0000000000000000  0.0000000000000000  0.0000000000000000 -0.0000000000000000 -0.0000000000000000  0.0000000000000000  0.0000000000000000 -0.0000000000000000 -0.0000000000000000  0.0000000000000000  0.0000000000000000 -0.0000000000000000 -0.0000000000000000 -0.0000000000000000  0.0000000000000000 -0.0000000000000000 -0.0000000000000000  0.0000000000000000  0.0000000000000000 -0.0000000000000000 -0.0000000000000000  0.0000000000000000  0.0000000000000000 -0.0000000000000000 -0.0000000000000000  0.0000000000000000  0.0000000000000000 -0.0000000000000000 -0.0000000000000000 -0.0000000000000000  0.0000000000000000  0.0000000000000000  0.0000000000000000  0.0000000000000000  0.0000000000000000 -0.0000000000000000  0.0000000000000000 -0.0000000000000000 -0.0000000000000000  0.0000000000000000  0.0000000000000000 -0.0000000000000000 -0.0000000000000000 -0.0000000000000000  0.0000000000000000
 -0.0000000000000000 -0.0000000000000000 -0.0000000000000000 -0.0000000000000000 -0.0000000000000000 -0.0000000000000000 -0.0000000000000000 -0.0000000000000000 -0.0000000000000000 -0.0000000000000000 -0.0000000000000000 -0.0000000000000000 -0.0000000000000000 -0.0000000000000000  0.0000000000000000 -0.0000000000000000 -0.0000000000000000 -0.0000000000000000  0.0000000000000000 -0.0000000000000000 -0.0000000000000000  0.0000000000000000  0.0000000000000000 -0.0000000000000000  0.0000000000000000  0.0000000000000000  0.0000000000000000 -0.0000000000000000  0.0000000000000000 -0.0000000000000000  0.0000000000000000  0.0000000000000000 -0.0000000000000000 -0.0000000000000000  0.0000000000000000  0.0000000000000000 -0.0000000000000000 -0.0000000000000000  0.0000000000000000  0.0000000000000000 -0.0000000000000000 -0.0000000000000000 -0.0000000000000000  0.0000000000000000 -0.0000000000000000 -0.0000000000000000  0.0000000000000000  0.0000000000000000 -0.0000000000000000 -0.0000000000000000  0.0000000000000000  0.0000000000000000 -0.0000000000000000 -0.0000000000000000  0.0000000000000000  0.0000000000000000 -0.0000000000000000 -0.0000000000000000 -0.0000000000000000  0.0000000000000000  0.0000000000000000  0.0000000000000000  0.0000000000000000  0.0000000000000000 -0.0000000000000000  0.0000000000000000 -0.0000000000000000 -0.0000000000000000  0.0000000000000000  0.0000000000000000 -0.0000000000000000 -0.0000000000000000 -0.0000000000000000  0.0000000000000000  0.0000000000000000
 -0.0000000000000000 -0.0000000000000000 -0.0000000000000000 -0.0000000000000000 -0.0000000000000000 -0.0000000000000000 -0.0000000000000000 -0.0000000000000000 -0.0000000000000000 -0.0000000000000000 -0.0000000000000000 -0.0000000000000000 -0.0000000000000000 -0.0000000000000000  0.0000000000000000 -0.0000000000000000 -0.0000000000000000 -0.0000000000000000  0.0000000000000000 -0.0000000000000000 -0.0000000000000000  0.0000000000000000  0.0000000000000000 -0.0000000000000000  0.0000000000000000  0.0000000000000000  0.0000000000000000 -0.0000000000000000  0.0000000000000000 -0.0000000000000000  0.0000000000000000  0.0000000000000000 -0.0000000000000000 -0.0000000000000000  0.0000000000000000  0.0000000000000000 -0.0000000000000000 -0.0000000000000000  0.0000000000000000  0.0000000000000000 -0.0000000000000000 -0.0000000000000000 -0.0000000000000000  0.0000000000000000 -0.0000000000000000 -0.0000000000000000  0.0000000000000000  0.0000000000000000 -0.0000000000000000 -0.0000000000000000  0.0000000000000000  0.0000000000000000 -0.0000000000000000 -0.0000000000000000  0.0000000000000000  0.0000000000000000 -0.0000000000000000 -0.0000000000000000 -0.0000000000000000  0.0000000000000000  0.0000000000000000  0.0000000000000000  0.0000000000000000  0.0000000000000000 -0.0000000000000000  0.0000000000000000 -0.0000000000000000 -0.0000000000000000  0.0000000000000000  0.0000000000000000 -0.0000000000000000 -0.0000000000000000 -0.0000000000000000  0.0000000000000000  0.0000000000000000  0.0000000000000000
 END
 
 Lower triangle of beta RDM in AO basis:
  0.0000000000000000
  0.0000000000000000  0.0000000000000000
  0.0000000000000000  0.0000000000000000  0.0000000000000000
  0.0000000000000000  0.0000000000000000  0.0000000000000000  0.0000000000000000
  0.0000000000000000  0.0000000000000000  0.0000000000000000  0.0000000000000000  0.0000000000000000
  0.0000000000000000  0.0000000000000000  0.0000000000000000  0.0000000000000000  0.0000000000000000  0.0000000000000000
  0.0000000000000000  0.0000000000000000  0.0000000000000000  0.0000000000000000  0.0000000000000000  0.0000000000000000  0.0000000000000000
  0.0000000000000000  0.0000000000000000  0.0000000000000000  0.0000000000000000  0.0000000000000000  0.0000000000000000  0.0000000000000000  0.0000000000000000
  0.0000000000000000  0.0000000000000000  0.0000000000000000  0.0000000000000000  0.0000000000000000  0.0000000000000000  0.0000000000000000  0.0000000000000000  0.0000000000000000
  0.0000000000000000  0.0000000000000000  0.0000000000000000  0.0000000000000000  0.0000000000000000  0.0000000000000000  0.0000000000000000  0.0000000000000000  0.0000000000000000  0.0000000000000000
  0.0000000000000000  0.0000000000000000  0.0000000000000000  0.0000000000000000  0.0000000000000000  0.0000000000000000  0.0000000000000000  0.0000000000000000  0.0000000000000000  0.0000000000000000  0.0000000000000000
  0.0000000000000000  0.0000000000000000  0.0000000000000000  0.0000000000000000  0.0000000000000000  0.0000000000000000  0.0000000000000000  0.0000000000000000  0.0000000000000000  0.0000000000000000  0.0000000000000000  0.0000000000000000
  0.0000000000000000  0.0000000000000000  0.0000000000000000  0.0000000000000000  0.0000000000000000  0.0000000000000000  0.0000000000000000  0.0000000000000000  0.0000000000000000  0.0000000000000000  0.0000000000000000  0.0000000000000000  0.0000000000000000
  0.0000000000000000  0.0000000000000000  0.0000000000000000  0.0000000000000000  0.0000000000000000  0.0000000000000000  0.0000000000000000  0.0000000000000000  0.0000000000000000  0.0000000000000000  0.0000000000000000  0.0000000000000000  0.0000000000000000  0.0000000000000000
  0.0000000000000000  0.0000000000000000  0.0000000000000000  0.0000000000000000  0.0000000000000000  0.0000000000000000  0.0000000000000000  0.0000000000000000  0.0000000000000000  0.0000000000000000  0.0000000000000000  0.0000000000000000  0.0000000000000000  0.0000000000000000  0.0000000000000000
  0.0000000000000000  0.0000000000000000  0.0000000000000000  0.0000000000000000  0.0000000000000000  0.0000000000000000  0.0000000000000000  0.0000000000000000  0.0000000000000000  0.0000000000000000  0.0000000000000000  0.0000000000000000  0.0000000000000000  0.0000000000000000  0.0000000000000000  0.0000000000000000
  0.0000000000000000  0.0000000000000000  0.0000000000000000  0.0000000000000000  0.0000000000000000  0.0000000000000000  0.0000000000000000  0.0000000000000000  0.0000000000000000  0.0000000000000000  0.0000000000000000  0.0000000000000000  0.0000000000000000  0.0000000000000000  0.0000000000000000  0.0000000000000000  0.0000000000000000
  0.0000000000000000  0.0000000000000000  0.0000000000000000  0.0000000000000000  0.0000000000000000  0.0000000000000000  0.0000000000000000  0.0000000000000000  0.0000000000000000  0.0000000000000000  0.0000000000000000  0.0000000000000000  0.0000000000000000  0.0000000000000000  0.0000000000000000  0.0000000000000000  0.0000000000000000  0.0000000000000000
  0.0000000000000000  0.0000000000000000  0.0000000000000000  0.0000000000000000  0.0000000000000000  0.0000000000000000  0.0000000000000000  0.0000000000000000  0.0000000000000000  0.0000000000000000  0.0000000000000000  0.0000000000000000  0.0000000000000000  0.0000000000000000  0.0000000000000000  0.0000000000000000  0.0000000000000000  0.0000000000000000  0.0000000000000000
  0.0000000000000000  0.0000000000000000  0.0000000000000000  0.0000000000000000  0.0000000000000000  0.0000000000000000  0.0000000000000000  0.0000000000000000  0.0000000000000000  0.0000000000000000  0.0000000000000000  0.0000000000000000  0.0000000000000000  0.0000000000000000  0.0000000000000000  0.0000000000000000  0.0000000000000000  0.0000000000000000  0.0000000000000000  0.0000000000000000
  0.0000000000000000  0.0000000000000000  0.0000000000000000  0.0000000000000000  0.0000000000000000  0.0000000000000000  0.0000000000000000  0.0000000000000000  0.0000000000000000  0.0000000000000000  0.0000000000000000  0.0000000000000000  0.0000000000000000  0.0000000000000000  0.0000000000000000  0.0000000000000000  0.0000000000000000  0.0000000000000000  0.0000000000000000  0.0000000000000000  0.0000000000000000
  0.0000000000000000  0.0000000000000000  0.0000000000000000  0.0000000000000000  0.0000000000000000  0.0000000000000000  0.0000000000000000  0.0000000000000000  0.0000000000000000  0.0000000000000000  0.0000000000000000  0.0000000000000000  0.0000000000000000  0.0000000000000000  0.0000000000000000  0.0000000000000000  0.0000000000000000  0.0000000000000000  0.0000000000000000  0.0000000000000000  0.0000000000000000  0.0000000000000000
  0.0000000000000000  0.0000000000000000  0.0000000000000000  0.0000000000000000  0.0000000000000000  0.0000000000000000  0.0000000000000000  0.0000000000000000  0.0000000000000000  0.0000000000000000  0.0000000000000000  0.0000000000000000  0.0000000000000000  0.0000000000000000  0.0000000000000000  0.0000000000000000  0.0000000000000000  0.0000000000000000  0.0000000000000000  0.0000000000000000  0.0000000000000000  0.0000000000000000  0.0000000000000000
  0.0000000000000000  0.0000000000000000  0.0000000000000000  0.0000000000000000  0.0000000000000000  0.0000000000000000  0.0000000000000000  0.0000000000000000  0.0000000000000000  0.0000000000000000  0.0000000000000000  0.0000000000000000  0.0000000000000000  0.0000000000000000  0.0000000000000000  0.0000000000000000  0.0000000000000000  0.0000000000000000  0.0000000000000000  0.0000000000000000  0.0000000000000000  0.0000000000000000  0.0000000000000000  0.0000000000000000
  0.0000000000000000  0.0000000000000000  0.0000000000000000  0.0000000000000000  0.0000000000000000  0.0000000000000000  0.0000000000000000  0.0000000000000000  0.0000000000000000  0.0000000000000000  0.0000000000000000  0.0000000000000000  0.0000000000000000  0.0000000000000000  0.0000000000000000  0.0000000000000000  0.0000000000000000  0.0000000000000000  0.0000000000000000  0.0000000000000000  0.0000000000000000  0.0000000000000000  0.0000000000000000  0.0000000000000000  0.0000000000000000
  0.0000000000000000  0.0000000000000000  0.0000000000000000  0.0000000000000000  0.0000000000000000  0.0000000000000000  0.0000000000000000  0.0000000000000000  0.0000000000000000  0.0000000000000000  0.0000000000000000  0.0000000000000000  0.0000000000000000  0.0000000000000000  0.0000000000000000  0.0000000000000000  0.0000000000000000  0.0000000000000000  0.0000000000000000  0.0000000000000000  0.0000000000000000  0.0000000000000000  0.0000000000000000  0.0000000000000000  0.0000000000000000  0.0000000000000000
  0.0000000000000000  0.0000000000000000  0.0000000000000000  0.0000000000000000  0.0000000000000000  0.0000000000000000  0.0000000000000000  0.0000000000000000  0.0000000000000000  0.0000000000000000  0.0000000000000000  0.0000000000000000  0.0000000000000000  0.0000000000000000  0.0000000000000000  0.0000000000000000  0.0000000000000000  0.0000000000000000  0.0000000000000000  0.0000000000000000  0.0000000000000000  0.0000000000000000  0.0000000000000000  0.0000000000000000  0.0000000000000000  0.0000000000000000  0.0000000000000000
  0.0000000000000000  0.0000000000000000  0.0000000000000000  0.0000000000000000  0.0000000000000000  0.0000000000000000  0.0000000000000000  0.0000000000000000  0.0000000000000000  0.0000000000000000  0.0000000000000000  0.0000000000000000  0.0000000000000000  0.0000000000000000  0.0000000000000000  0.0000000000000000  0.0000000000000000  0.0000000000000000  0.0000000000000000  0.0000000000000000  0.0000000000000000  0.0000000000000000  0.0000000000000000  0.0000000000000000  0.0000000000000000  0.0000000000000000  0.0000000000000000  0.0000000000000000
  0.0000000000000000  0.0000000000000000  0.0000000000000000  0.0000000000000000  0.0000000000000000  0.0000000000000000  0.0000000000000000  0.0000000000000000  0.0000000000000000  0.0000000000000000  0.0000000000000000  0.0000000000000000  0.0000000000000000  0.0000000000000000  0.0000000000000000  0.0000000000000000  0.0000000000000000  0.0000000000000000  0.0000000000000000  0.0000000000000000  0.0000000000000000  0.0000000000000000  0.0000000000000000  0.0000000000000000  0.0000000000000000  0.0000000000000000  0.0000000000000000  0.0000000000000000  0.0000000000000000
  0.0000000000000000  0.0000000000000000  0.0000000000000000  0.0000000000000000  0.0000000000000000  0.0000000000000000  0.0000000000000000  0.0000000000000000  0.0000000000000000  0.0000000000000000  0.0000000000000000  0.0000000000000000  0.0000000000000000  0.0000000000000000  0.0000000000000000  0.0000000000000000  0.0000000000000000  0.0000000000000000  0.0000000000000000  0.0000000000000000  0.0000000000000000  0.0000000000000000  0.0000000000000000  0.0000000000000000  0.0000000000000000  0.0000000000000000  0.0000000000000000  0.0000000000000000  0.0000000000000000  0.0000000000000000
  0.0000000000000000  0.0000000000000000  0.0000000000000000  0.0000000000000000  0.0000000000000000  0.0000000000000000  0.0000000000000000  0.0000000000000000  0.0000000000000000  0.0000000000000000  0.0000000000000000  0.0000000000000000  0.0000000000000000  0.0000000000000000  0.0000000000000000  0.0000000000000000  0.0000000000000000  0.0000000000000000  0.0000000000000000  0.0000000000000000  0.0000000000000000  0.0000000000000000  0.0000000000000000  0.0000000000000000  0.0000000000000000  0.0000000000000000  0.0000000000000000  0.0000000000000000  0.0000000000000000  0.0000000000000000  0.0000000000000000
  0.0000000000000000  0.0000000000000000  0.0000000000000000  0.0000000000000000  0.0000000000000000  0.0000000000000000  0.0000000000000000  0.0000000000000000  0.0000000000000000  0.0000000000000000  0.0000000000000000  0.0000000000000000  0.0000000000000000  0.0000000000000000  0.0000000000000000  0.0000000000000000  0.0000000000000000  0.0000000000000000  0.0000000000000000  0.0000000000000000  0.0000000000000000  0.0000000000000000  0.0000000000000000  0.0000000000000000  0.0000000000000000  0.0000000000000000  0.0000000000000000  0.0000000000000000  0.0000000000000000  0.0000000000000000  0.0000000000000000  0.0000000000000000
[...]
  0.0000000000000000  0.0000000000000000  0.0000000000000000  0.0000000000000000  0.0000000000000000  0.0000000000000000  0.0000000000000000  0.0000000000000000  0.0000000000000000 -0.0000000000000004  0.0000000000000000  0.0000000000000000  0.0000000000000006  0.0000000000000000  0.0000000000000000  0.0000000000000001  0.0000000000000000  0.0000000000000000  0.0000000000000001  0.0000000000000000  0.0000000000000000  0.0000000000000000  0.0000000000000000  0.0000000000000000  0.0000000000000000  0.0000000000000000  0.0000000000000000  0.0000000000000000  0.0000000000000000  0.0000000000000000  0.0000136700796777  0.0000000000000000  0.0000000000000000  0.0000000000000000  0.0000000000000000  0.0000000000000000  0.0000000000000000  0.0000000000000000  0.0000000000000000  0.0000000000000000  0.0000000000000000  0.0000000000000000  0.0000000000000000  0.0000000000000000  0.0000000000000000  0.0000000000000000  0.0000000000000000  0.0000000000000000  0.0000000000000000  0.0000000000000000  0.0000000000000000  0.0000000000000000  0.0000000000000000  0.0000000000000000  0.9999999999999984
  0.0000000000000000  0.0000000000000000  0.0000000000000000  0.0000000000000000  0.0000000000000000  0.0000000000000000  0.0000000000000000  0.0000000000000000  0.0000000000000000  0.0000000000000000  0.0000000000000000  0.0000000000000000  0.0000000000000000  0.0000000000000000  0.0000000000000000  0.0000000000000000  0.0000000000000000  0.0000000000000000  0.0000000000000000  0.0000000000000000  0.0000000000000000  0.0000000000000000  0.0000000000000000  0.0000000000000000  0.0000000000000000  0.0000000000000000  0.0000000000000000  0.0000000000000000  0.0000000000000000  0.0000000000000000  0.0000000000000000  0.0000000000000000  0.0000000000000000  0.0000000000000000  0.0000000000000000  0.0000000000000000  0.0000000000000000  0.0000000000000000  0.0000000000000000  0.0000000000000000  0.0000000000000000  0.0000000000000000  0.0000000000000000  0.0000000000000000  0.0000000000000000  0.0000000000000000  0.0000000000000000  0.0000000000000000  0.0000000000000000  0.0000000000000000  0.0000000000000000  0.0000000000000000  0.0000000000000000  0.0000000000000000  0.0000000000000000  1.0000000000000002
  0.0000000000000000  0.0000000000000000  0.0000000000000000  0.0000000000000000  0.0000000000000000  0.0000000000000000 -0.0000000000000000  0.0000000000000000  0.0000000000000000  0.0000000000000000  0.0000000000000000  0.0000000000000000  0.0000000000000000 -0.0000000000000001  0.0000000000000000  0.0000000000000000 -0.0000000000000001  0.0000000000000000  0.0000000000000000  0.0000000000000000  0.0000000000000000  0.0000000000000000  0.0000000000000000  0.0000000000000000  0.0000000000000000  0.0000000000000000  0.0000000000000000  0.0000000000000000  0.0000000000000000  0.0000000000000000  0.0000000000000000  0.0000000000000000  0.0000000000000000  0.0000000000000000  0.0000000000000000  0.0000000000000000  0.0000000000000000  0.0000000000000000  0.0000000000000000  0.0000000000000000  0.0000000000000000  0.0000000000000000  0.0000000000000000  0.0000000000000000  0.0000000000000000  0.0000000000000000  0.0000000000000000  0.0000000000000000  0.0000000000000000  0.0000000000000000  0.0000000000000000  0.0000000000000000 -0.0000000000000001  0.0000000000000000  0.0000000000000000  0.0000000000000000  0.9999999999999994
  0.0000000000000000  0.0000000000000000  0.0000000000000000  0.0000000000000000  0.0000000000000000  0.0000000000000000  0.0000000000000000  0.0000000000000000 -0.0000000000000001  0.0000000000000000  0.0000000000000000 -0.0000000000000003  0.0000000000000000  0.0000000000000000 -0.0000000000000001  0.0000000000000000  0.0000000000000000 -0.0000000000000001  0.0000000000000000  0.0000000000000000  0.0000000000000000  0.0000000000000000  0.0000000000000000  0.0000000000000000  0.0000000000000000  0.0000000000000000  0.0000000000000000  0.0000000000000000  0.0000000000000000 -0.0000000000000000  0.0000000000000000  0.0000000000000000  0.0000000000000000  0.0000000000000000  0.0000000000000000  0.0000000000000000  0.0000000000000000  0.0000000000000000  0.0000000000000000  0.0000000000000000  0.0000000000000000  0.0000000000000000  0.0000000000000000  0.0000000000000000  0.0000000000000000  0.0000000000000000  0.0000000000000000  0.0000000000000000  0.0000000000000000  0.0000000000000000  0.0000000000000000  0.0000000000000000  0.0000000000000000 -0.0000000000000004  0.0000000000000000  0.0000000000000000  0.0000000000000000  0.9999999999999994
  0.0000000000000000  0.0000000000000000  0.0000000000000000  0.0000000000000000  0.0000000000000000  0.0000000000000000  0.0000000000000000  0.0000000000000000  0.0000000000000000 -0.0000000000000001  0.0000000000000000  0.0000000000000000 -0.0000000000000002  0.0000000000000000  0.0000000000000000 -0.0000000000000001  0.0000000000000000  0.0000000000000000 -0.0000000000000001  0.0000000000000000  0.0000000000000000  0.0000000000000000  0.0000000000000000  0.0000000000000000  0.0000000000000000  0.0000000000000000  0.0000000000000000  0.0000000000000000  0.0000000000000000  0.0000000000000000 -0.0000000000000000  0.0000000000000000  0.0000000000000000  0.0000000000000000  0.0000000000000000  0.0000000000000000  0.0000000000000000  0.0000000000000000  0.0000000000000000  0.0000000000000000  0.0000000000000000  0.0000000000000000  0.0000000000000000  0.0000000000000000  0.0000000000000000  0.0000000000000000  0.0000000000000000  0.0000000000000000  0.0000000000000000  0.0000000000000000  0.0000000000000000  0.0000000000000000  0.0000000000000000  0.0000000000000000 -0.0000000000000004  0.0000000000000000  0.0000000000000000  0.0000000000000000  1.0000000000000000
  0.0000000000000000  0.0000000000000000 -0.0000000010557920 -0.0000227357362935  0.0000000000000000  0.0000000000000000  0.0000000000000000  0.0000000000000000  0.0000000000000000  0.0000000000000000  0.0000000000000000  0.0000000000000000  0.0000000000000000  0.0000000000000000  0.0000000000000000  0.0000000000000000  0.0000000000000000  0.0000000000000000  0.0000000000000000 -0.0000903453215270  0.0000000000000000  0.0000000000000000  0.0000000000000002  0.0000000000000000  0.0000000000000000  0.0000000000000012  0.0000000000000000  0.0000000000000000 -0.0000000000000001  0.0000000000000000  0.0000000000000000  0.0000000000000003  0.0000000000000000  0.0000000000000000  0.0000000000000000  0.0000000000000000  0.0000000000000000  0.0000000000000000  0.0000000000000000  0.0000000000000000  0.0000000000000000  0.0000000000000000  0.0000000000000000  0.0000000000000000  0.0000000000000000  0.0000000000000000  0.0000000000000000  0.0000000000000000  0.0000000000000000  0.0000000000000000  0.0000000000000000  0.0000000000000000  0.0000000000000000  0.0000000000000000  0.0000000000000000  0.0000000000000000  0.0000000000000000  0.0000000000000000  0.0000000000000000  1.0000000000000027
  0.0000000000000000  0.0000000000000000  0.0000000000000000  0.0000000000000000  0.0000000000000000  0.0000000000000000  0.0000000000000000  0.0000000000000000  0.0000000000000000  0.0000000000000000  0.0000000000000000  0.0000000000000000  0.0000000000000000  0.0000000000000000  0.0000000000000000  0.0000000000000000  0.0000000000000000  0.0000136700796777  0.0000000000000000  0.0000000000000000 -0.0000000000000004  0.0000000000000000  0.0000000000000000  0.0000000000000004  0.0000000000000000  0.0000000000000000  0.0000000000000000  0.0000000000000000  0.0000000000000000  0.0000000000000001  0.0000000000000000  0.0000000000000000  0.0000000000000000  0.0000000000000000  0.0000000000000000  0.0000000000000000  0.0000000000000000  0.0000000000000000  0.0000000000000000  0.0000000000000000  0.0000000000000000  0.0000000000000000  0.0000000000000000  0.0000000000000000  0.0000000000000000  0.0000000000000000  0.0000000000000000  0.0000000000000000  0.0000000000000000  0.0000000000000000  0.0000000000000000  0.0000000000000000  0.0000000000000000  0.0000000000000000  0.0000000000000000  0.0000000000000000  0.0000000000000000  0.0000000000000000  0.0000000000000000  0.0000000000000000  0.9999999999999982
  0.0000000000000000  0.0000000000000000  0.0000000000000000  0.0000000000000000  0.0000000000000000  0.0000000000000000  0.0000000000000000  0.0000000000000000  0.0000000000000000  0.0000000000000000  0.0000000000000000  0.0000000000000000  0.0000000000000000  0.0000000000000000  0.0000000000000000  0.0000000000000000  0.0000000000000000  0.0000000000000000  0.0000136700796777  0.0000000000000000  0.0000000000000000 -0.0000000000000004  0.0000000000000000  0.0000000000000000  0.0000000000000006  0.0000000000000000  0.0000000000000000  0.0000000000000001  0.0000000000000000  0.0000000000000000  0.0000000000000001  0.0000000000000000  0.0000000000000000  0.0000000000000000  0.0000000000000000  0.0000000000000000  0.0000000000000000  0.0000000000000000  0.0000000000000000  0.0000000000000000  0.0000000000000000  0.0000000000000000  0.0000000000000000  0.0000000000000000  0.0000000000000000  0.0000000000000000  0.0000000000000000  0.0000000000000000  0.0000000000000000  0.0000000000000000  0.0000000000000000  0.0000000000000000  0.0000000000000000  0.0000000000000000  0.0000000000000000  0.0000000000000000  0.0000000000000000  0.0000000000000000  0.0000000000000000  0.0000000000000000  0.0000000000000000  0.9999999999999984
  0.0000000000000000  0.0000000000000000  0.0000000000000000  0.0000000000000000  0.0000000000000000  0.0000000000000000  0.0000000000000000  0.0000000000000000  0.0000000000000000  0.0000000000000000  0.0000000000000000  0.0000000000000000  0.0000000000000000  0.0000000000000000  0.0000000000000000  0.0000000000000000  0.0000000000000000  0.0000000000000000  0.0000000000000000  0.0000000000000000  0.0000000000000000  0.0000000000000000  0.0000000000000000  0.0000000000000000  0.0000000000000000  0.0000000000000000  0.0000000000000000  0.0000000000000000  0.0000000000000000  0.0000000000000000  0.0000000000000000  0.0000000000000000  0.0000000000000000  0.0000000000000000  0.0000000000000000  0.0000000000000000  0.0000000000000000  0.0000000000000000  0.0000000000000000  0.0000000000000000  0.0000000000000000  0.0000000000000000  0.0000000000000000  0.0000000000000000  0.0000000000000000  0.0000000000000000  0.0000000000000000  0.0000000000000000  0.0000000000000000  0.0000000000000000  0.0000000000000000  0.0000000000000000  0.0000000000000000  0.0000000000000000  0.0000000000000000  0.0000000000000000  0.0000000000000000  0.0000000000000000  0.0000000000000000  0.0000000000000000  0.0000000000000000  0.0000000000000000  1.0000000000000002
  0.0000000000000000  0.0000000000000000  0.0000000000000000  0.0000000000000000  0.0000000000000000  0.0000000000000000  0.0000000000000000  0.0000000000000000  0.0000000000000000  0.0000000000000000  0.0000000000000000  0.0000000000000000  0.0000000000000000  0.0000000000000000  0.0000000000000000  0.0000000000000000  0.0000000000000000  0.0000000000000000  0.0000000000000000  0.0000000000000000  0.0000000000000000  0.0000000000000000  0.0000000000000000  0.0000000000000000  0.0000000000000000 -0.0000000000000001  0.0000000000000000  0.0000000000000000 -0.0000000000000001  0.0000000000000000  0.0000000000000000  0.0000000000000000  0.0000000000000000  0.0000000000000000  0.0000000000000000  0.0000000000000000  0.0000000000000000  0.0000000000000000  0.0000000000000000  0.0000000000000000  0.0000000000000000  0.0000000000000000  0.0000000000000000  0.0000000000000000  0.0000000000000000  0.0000000000000000  0.0000000000000000  0.0000000000000000  0.0000000000000000  0.0000000000000000  0.0000000000000000  0.0000000000000000  0.0000000000000000  0.0000000000000000  0.0000000000000000  0.0000000000000000  0.0000000000000000  0.0000000000000000  0.0000000000000000 -0.0000000000000001  0.0000000000000000  0.0000000000000000  0.0000000000000000  0.9999999999999994
  0.0000000000000000  0.0000000000000000  0.0000000000000000  0.0000000000000000  0.0000000000000000  0.0000000000000000  0.0000000000000000  0.0000000000000000  0.0000000000000000  0.0000000000000000  0.0000000000000000  0.0000000000000000  0.0000000000000000  0.0000000000000000  0.0000000000000000  0.0000000000000000  0.0000000000000000 -0.0000000000000000  0.0000000000000000  0.0000000000000000 -0.0000000000000001  0.0000000000000000  0.0000000000000000 -0.0000000000000003  0.0000000000000000  0.0000000000000000 -0.0000000000000001  0.0000000000000000  0.0000000000000000 -0.0000000000000001  0.0000000000000000  0.0000000000000000  0.0000000000000000  0.0000000000000000  0.0000000000000000  0.0000000000000000  0.0000000000000000  0.0000000000000000  0.0000000000000000  0.0000000000000000  0.0000000000000000  0.0000000000000000  0.0000000000000000  0.0000000000000000  0.0000000000000000  0.0000000000000000  0.0000000000000000  0.0000000000000000  0.0000000000000000  0.0000000000000000  0.0000000000000000  0.0000000000000000  0.0000000000000000  0.0000000000000000  0.0000000000000000  0.0000000000000000  0.0000000000000000  0.0000000000000000  0.0000000000000000  0.0000000000000000 -0.0000000000000004  0.0000000000000000  0.0000000000000000  0.0000000000000000  0.9999999999999994
  0.0000000000000000  0.0000000000000000  0.0000000000000000  0.0000000000000000  0.0000000000000000  0.0000000000000000  0.0000000000000000  0.0000000000000000  0.0000000000000000  0.0000000000000000  0.0000000000000000  0.0000000000000000  0.0000000000000000  0.0000000000000000  0.0000000000000000  0.0000000000000000  0.0000000000000000  0.0000000000000000 -0.0000000000000000  0.0000000000000000  0.0000000000000000 -0.0000000000000001  0.0000000000000000  0.0000000000000000 -0.0000000000000002  0.0000000000000000  0.0000000000000000 -0.0000000000000001  0.0000000000000000  0.0000000000000000 -0.0000000000000001  0.0000000000000000  0.0000000000000000  0.0000000000000000  0.0000000000000000  0.0000000000000000  0.0000000000000000  0.0000000000000000  0.0000000000000000  0.0000000000000000  0.0000000000000000  0.0000000000000000  0.0000000000000000  0.0000000000000000  0.0000000000000000  0.0000000000000000  0.0000000000000000  0.0000000000000000  0.0000000000000000  0.0000000000000000  0.0000000000000000  0.0000000000000000  0.0000000000000000  0.0000000000000000  0.0000000000000000  0.0000000000000000  0.0000000000000000  0.0000000000000000  0.0000000000000000  0.0000000000000000  0.0000000000000000 -0.0000000000000004  0.0000000000000000  0.0000000000000000  0.0000000000000000  1.0000000000000000
 END


 total number of electrons =     1.00000000000001

 => charge of molecule     =     0.99999999999999




------------------------------------------------------------------------

   Population Analysis Based On Occupation Numbers (PABOON)

------------------------------------------------------------------------

 
 CHOICE OF MAOs:
MAOs are selected due to their eigenvalues; determination of their number: 
 automatic; mixing options fix and eigenvalue thr=0.1
 
 ... and this is your MAO selection:
 (atoms for which the two selection methods (fixed/threshold) yield
 different numbers of MAOs are marked by an *)
 
   atom   nr. of MAOs      selection criterion
    1 h          1               eig
    2 h          1               eig
 


************************************************************************
*                                                                      *
*                     unassigned charge =  -0.000000                   *
*                                                                      *
************************************************************************



************************************************************************
*                                                                      *
*                       hypervalent contributions                      *
*                                                                      *
************************************************************************

              h    1           -0.000000
              h    2           -0.000000


************************************************************************
*                                                                      *
*                        shared electron numbers                       *
*                                                                      *
************************************************************************



 TWO center shared electron numbers ge 0.1000E-01 :


************************************************************************
*                                                                      *
*              atomic charges with multicenter corrections             *
*              AS RESULTING FROM 2-CENTER SEN CONTRIBUTIONS            *
*                                                                      *
************************************************************************

                        -------------------------
                           atom   |     charge   
                        -------------------------
                            1 h   |    0.5000
                            2 h   |    0.5000
                        -------------------------


************************************************************************
*                                                                      *
*              atomic charges with multicenter corrections             *
*                                                                      *
************************************************************************

                        -------------------------
                           atom   |     charge   
                        -------------------------
                            1 h   |    0.5000
                            2 h   |    0.5000
                        -------------------------

 
 moments (from total density versus population analysis)
 <charge> =             1.000000            1.000000
 <xx  >   =            -1.004480            0.000000
 <yy  >   =            -1.004480            0.000000
 <zz  >   =            29.699005           30.250000
 <xy  >   =            -0.000000            0.000000
 <xz  >   =            -0.000000            0.000000
 <yz  >   =            -0.000000            0.000000

 
 
 ==============================================================================
                      CALCULATION OF QUANTITIES ON GRID
 ==============================================================================
 
 
 output format: v1,v2,f(v1,v2)
 output format: v1,v2,f(v1,v2)
 Reasonable settings for gnuplot contour plots are in file 'gnuset'.
 Call gnuplot and use it by typing: 'load "gnuset"'
 ... and then follow further instructions ...
 
 
 quantities to be calculated are 
 density                     file: ..d.vec
 
 calculation at a plane of  500*  201 points
 
 origin at            0.00000        0.00000        0.00000
 
 normalised grid vectors:
                        x              y              z
  1. vector:         0.00000        0.00000        1.00000
  2. vector:         0.00000        1.00000        0.00000
 
                     minimum       increment       maximum
  1. vector:        -8.00000        0.03206        8.00000
  2. vector:        -5.00000        0.05000        5.00000
 
 
 ==============================================================================
 


    ------------------------------------------------------------------------
         total  cpu-time :   1.64 seconds
         total wall-time :   2.09 seconds
    ------------------------------------------------------------------------


   ****  dscf : all done  ****


    2015-03-28 18:37:19.026 

