 operating system is UNIX !
 hostname is         gplogin1.local

 dscf (gplogin1.local) : TURBOMOLE V6.6( ) 18 Mar 2015 at 17:33:10
 Copyright (C) 2015 TURBOMOLE GmbH, Karlsruhe


    2015-03-30 11:14:36.459 



                             d s c f - program

                   idea & directorship : reinhart ahlrichs
                   program development : marco haeser
                                         michael baer
                           dft version : oliver treutler


                          quantum chemistry group
                          universitaet  karlsruhe
                                  germany




                          References             
                                                 
          TURBOMOLE:                             
              R. Ahlrichs, M. Baer, M. Haeser, H. Horn, and
              C. Koelmel
              Electronic structure calculations on workstation
              computers: the program system TURBOMOLE
              Chem. Phys. Lett. 162: 165 (1989)
          Density Functional:                              
              O. Treutler and R. Ahlrichs                      
              Efficient Molecular Numerical Integration Schemes
              J. Chem. Phys. 102: 346 (1995)                   
          Parallel Version:                                
              Performance of parallel TURBOMOLE for Density    
              Functional Calculations                          
              M. v. Arnim and R. Ahlrichs                      
              J. Comp. Chem. 19: 1746 (1998)                   
                                         



 UHF mode switched on !


              +--------------------------------------------------+
              | Atomic coordinate, charge and isotop information |
              +--------------------------------------------------+

                    atomic coordinates            atom    charge  isotop
          0.00000000    0.00000000   -0.50000000    h      1.000     0
          0.00000000    0.00000000    0.50000000    h      1.000     0
 
       center of nuclear mass  :    0.00000000    0.00000000    0.00000000
       center of nuclear charge:    0.00000000    0.00000000    0.00000000

   *************************************************************************
   h-h/1.0                                                                  
   *************************************************************************



              +--------------------------------------------------+
              |               basis set information              |
              +--------------------------------------------------+

              we will work with the 1s 3p 5d 7f 9g ... basis set
              ...i.e. with spherical basis functions...

   type   atoms  prim   cont   basis
   ---------------------------------------------------------------------------
    h        2      7      5   def2-SVP   [2s1p|4s1p]
   ---------------------------------------------------------------------------
   total:    2     14     10
   ---------------------------------------------------------------------------

   total number of primitive shells          :    5
   total number of contracted shells         :    6
   total number of cartesian basis functions :   10
   total number of SCF-basis functions       :   10


 integral neglect threshold       :  0.33E-10
 integral storage threshold THIZE :  0.10E-04
 integral storage threshold THIME :         5


 symmetry group of the molecule :   c1 

 the group has the following generators :
   c1(z)

    1 symmetry operations found

 there are 1 real representations :   a   

 maximum number of shells which are related by symmetry :  1

  missing beta occupation number declaration 

    mo occupation :
   irrep   mo's   occupied
    a       10        1
 
 number of basis functions   :           10
 number of occupied orbitals :            1
 

          ------------------------
          nuclear repulsion energy  :   1.00000000000    
          ------------------------

 
          -----------------
          -S,T+V- integrals
          -----------------

 1e-integrals will be neglected if expon. factor < 0.334196E-11
 
   Difference densities algorithm switched on.
   The maximal number of linear combinations of
   difference densities is          20 .

 automatic virtual orbital shift switched on 
      shift if e(lumo)-e(homo) < 0.10000000    


 DIIS switched on: error vector is FDS-SDF
 Max. Iterations for DIIS is     :   5
 DIIS matrix (see manual) 
    Scaling factor of diagonals  :  1.200
    threshold for scaling factor :  0.000

 scf convergence criterion : increment of total energy < .1000000D-07
                  and increment of one-electron energy < .1000000D-04


 <geterg> : there is no data group $energy 

  MOs are in ASCII format !


 reading orbital data $uhfmo_alpha  from file alpha . 

 orbital characterization : expanded
 

 reading orbital data $uhfmo_beta  from file beta . 

 orbital characterization : expanded
 
 mo provided and orthogonalized by Cholesky decomposition
 mo provided and orthogonalized by Cholesky decomposition

 DSCF restart information will be dumped onto file alpha

 
                                              current damping :  1.000
 ITERATION  ENERGY          1e-ENERGY        2e-ENERGY     NORM[dD(SAO)]  TOL
   1  -.28775949838897    -1.2877594984    -.34694469520E-170.000D+00 0.333D-10
          max. resid. norm for Fia-block=  3.768D-01 for orbital      1a    alpha
          max. resid. fock norm         =  1.749D+00 for orbital      8a    alpha
          Delta Eig. =    40.4643878552 eV 
 
                                              current damping :  0.950
 ITERATION  ENERGY          1e-ENERGY        2e-ENERGY     NORM[dD(SAO)]  TOL
   2  -.35165092338659    -1.3516509234    -.34694469520E-170.111D+00 0.206D-10
          Norm of current diis error: 0.48446    
          max. resid. norm for Fia-block=  3.188D-01 for orbital      1a    alpha
          max. resid. fock norm         =  3.188D-01 for orbital      1a    alpha
          Delta Eig. =    21.8040484160 eV 
 
                                              current damping :  0.900
 ITERATION  ENERGY          1e-ENERGY        2e-ENERGY     NORM[dD(SAO)]  TOL
   3  -.39972990666459    -1.3997299067     0.0000000000    0.320D-01 0.136D-10
          Norm of current diis error: 0.32129    
          max. resid. norm for Fia-block=  2.452D-01 for orbital      1a    alpha
          max. resid. fock norm         =  2.452D-01 for orbital      1a    alpha
          Delta Eig. =    11.8829773558 eV 
 
                                              current damping :  0.750
 ITERATION  ENERGY          1e-ENERGY        2e-ENERGY     NORM[dD(SAO)]  TOL
   4  -.42522237203855    -1.4252223720    0.34694469520E-170.433D-02 0.107D-10
          Norm of current diis error: 0.17788    
          max. resid. norm for Fia-block=  1.441D-01 for orbital      1a    alpha
          max. resid. fock norm         =  1.441D-01 for orbital      1a    alpha
          Delta Eig. =     6.3444742576 eV 
 
                                              current damping :  0.800
 ITERATION  ENERGY          1e-ENERGY        2e-ENERGY     NORM[dD(SAO)]  TOL
   5  -.43405634658405    -1.4340563466     0.0000000000    0.500D-03 0.938D-11
          Norm of current diis error: 0.82789E-01
          max. resid. norm for Fia-block=  6.849D-02 for orbital      1a    alpha
          max. resid. fock norm         =  6.849D-02 for orbital      1a    alpha
 mo-orthogonalization: Cholesky decomposition
          Delta Eig. =     2.6324276062 eV 
 
                                              current damping :  0.850
 ITERATION  ENERGY          1e-ENERGY        2e-ENERGY     NORM[dD(SAO)]  TOL
   6  -.43600002628763    -1.4360000263    0.34694469520E-170.190D-05 0.883D-11
          Norm of current diis error: 0.38478E-01
          max. resid. norm for Fia-block=  3.207D-02 for orbital      1a    alpha
          max. resid. fock norm         =  3.207D-02 for orbital      1a    alpha
          Delta Eig. =     1.1118536285 eV 
 
                                              current damping :  0.900
 ITERATION  ENERGY          1e-ENERGY        2e-ENERGY     NORM[dD(SAO)]  TOL
   7  -.43642153821874    -1.4364215382    -.27755575616E-160.726D-14 0.848D-11
          Norm of current diis error: 0.18290E-01
          max. resid. norm for Fia-block=  1.533D-02 for orbital      1a    alpha
          max. resid. fock norm         =  1.533D-02 for orbital      1a    alpha
          Delta Eig. =     0.4887918993 eV 
 
                                              current damping :  0.750
 ITERATION  ENERGY          1e-ENERGY        2e-ENERGY     NORM[dD(SAO)]  TOL
   8  -.43651653299025    -1.4365165330    -.38163916471E-160.131D-14 0.823D-11
          Norm of current diis error: 0.89088E-02
          max. resid. norm for Fia-block=  7.501D-03 for orbital      1a    alpha
          max. resid. fock norm         =  7.501D-03 for orbital      1a    alpha
          Delta Eig. =     0.2492085101 eV 
 
                                              current damping :  0.600
 ITERATION  ENERGY          1e-ENERGY        2e-ENERGY     NORM[dD(SAO)]  TOL
   9  -.43654053289450    -1.4365405329    -.41633363423E-160.156D-14 0.805D-11
          Norm of current diis error: 0.39358E-02
          max. resid. norm for Fia-block=  3.329D-03 for orbital      1a    alpha
          max. resid. fock norm         =  3.329D-03 for orbital      1a    alpha
          Delta Eig. =     0.1167826095 eV 
 
                                              current damping :  0.650
 ITERATION  ENERGY          1e-ENERGY        2e-ENERGY     NORM[dD(SAO)]  TOL
  10  -.43654551510485    -1.4365455151    -.38163916471E-160.502D-15 0.796D-11
          Norm of current diis error: 0.15277E-02
          max. resid. norm for Fia-block=  1.298D-03 for orbital      1a    alpha
          max. resid. fock norm         =  1.298D-03 for orbital      1a    alpha
 mo-orthogonalization: Cholesky decomposition
          Delta Eig. =     0.0427738474 eV 
 
                                              current damping :  0.500
 ITERATION  ENERGY          1e-ENERGY        2e-ENERGY     NORM[dD(SAO)]  TOL
  11  -.43654625826206    -1.4365462583    -.34694469520E-160.374D-15 0.791D-11
          Norm of current diis error: 0.61957E-03
          max. resid. norm for Fia-block=  5.277D-04 for orbital      1a    alpha
          max. resid. fock norm         =  5.277D-04 for orbital      1a    alpha
          Delta Eig. =     0.0187003722 eV 
 
                                              current damping :  0.350
 ITERATION  ENERGY          1e-ENERGY        2e-ENERGY     NORM[dD(SAO)]  TOL
  12  -.43654638762646    -1.4365463876    -.31225022568E-160.362D-15 0.789D-11
          Norm of current diis error: 0.21420E-03
          max. resid. norm for Fia-block=  1.829D-04 for orbital      1a    alpha
          max. resid. fock norm         =  1.829D-04 for orbital      1a    alpha
          Delta Eig. =     0.0070203237 eV 
 
                                              current damping :  0.200
 ITERATION  ENERGY          1e-ENERGY        2e-ENERGY     NORM[dD(SAO)]  TOL
  13  -.43654640394345    -1.4365464039    0.69388939039E-170.728D-01 0.950D-11
          Norm of current diis error: 0.58316E-04
          max. resid. norm for Fia-block=  4.993D-05 for orbital      1a    alpha
          max. resid. fock norm         =  4.993D-05 for orbital      1a    alpha
          Delta Eig. =     0.0020884799 eV 

 ENERGY CONVERGED !

 
                                              current damping :  0.250
 ITERATION  ENERGY          1e-ENERGY        2e-ENERGY     NORM[dD(SAO)]  TOL
  14  -.43654640521096    -1.4365464052    -.34694469520E-170.728D-01 0.333D-10
          max. resid. norm for Fia-block=  6.719D-06 for orbital      1a    alpha
          max. resid. fock norm         =  6.719D-06 for orbital      1a    alpha
 Density matrix in CAO:
 
 Print from pmat
 
 Lower triangle of alpha RDM in AO basis:
  0.2598123788579865
  0.0055619454540846  0.0001190676032073
  0.2598123788579850  0.0055619454540846  0.2598123788579836
  0.0055619454540894  0.0001190676032074  0.0055619454540894  0.0001190676032075
 -0.0000000000000002 -0.0000000000000000 -0.0000000000000002 -0.0000000000000000  0.0000000000000000
 -0.0000000000000001 -0.0000000000000000 -0.0000000000000001 -0.0000000000000000  0.0000000000000000  0.0000000000000000
  0.0286117131567240  0.0006125065657961  0.0286117131567238  0.0006125065657966 -0.0000000000000000 -0.0000000000000000  0.0031508511386600
  0.0000000000000002  0.0000000000000000  0.0000000000000002  0.0000000000000000 -0.0000000000000000 -0.0000000000000000  0.0000000000000000  0.0000000000000000
  0.0000000000000001  0.0000000000000000  0.0000000000000001  0.0000000000000000 -0.0000000000000000 -0.0000000000000000  0.0000000000000000  0.0000000000000000  0.0000000000000000
 -0.0286117131567228 -0.0006125065657960 -0.0286117131567226 -0.0006125065657966  0.0000000000000000  0.0000000000000000 -0.0031508511386599 -0.0000000000000000 -0.0000000000000000  0.0031508511386597
 END
 
 Lower triangle of beta RDM in AO basis:
  0.0000000000000000
  0.0000000000000000  0.0000000000000000
  0.0000000000000000  0.0000000000000000  0.0000000000000000
  0.0000000000000000  0.0000000000000000  0.0000000000000000  0.0000000000000000
  0.0000000000000000  0.0000000000000000  0.0000000000000000  0.0000000000000000  0.0000000000000000
  0.0000000000000000  0.0000000000000000  0.0000000000000000  0.0000000000000000  0.0000000000000000  0.0000000000000000
  0.0000000000000000  0.0000000000000000  0.0000000000000000  0.0000000000000000  0.0000000000000000  0.0000000000000000  0.0000000000000000
  0.0000000000000000  0.0000000000000000  0.0000000000000000  0.0000000000000000  0.0000000000000000  0.0000000000000000  0.0000000000000000  0.0000000000000000
  0.0000000000000000  0.0000000000000000  0.0000000000000000  0.0000000000000000  0.0000000000000000  0.0000000000000000  0.0000000000000000  0.0000000000000000  0.0000000000000000
  0.0000000000000000  0.0000000000000000  0.0000000000000000  0.0000000000000000  0.0000000000000000  0.0000000000000000  0.0000000000000000  0.0000000000000000  0.0000000000000000  0.0000000000000000
 END

 convergence criteria satisfied after 14 iterations


   *************************************************************************
   h-h/1.0                                                                  
   *************************************************************************


                  ------------------------------------------ 
                 |  total energy      =     -0.43654640521  |
                  ------------------------------------------ 
                 :  kinetic energy    =      0.86665573866  :
                 :  potential energy  =     -1.30320214387  :
                 :  virial theorem    =      2.98525455328  :
                 :  wavefunction norm =      1.00000000000  :
                  .......................................... 


 <geterg> : there is no data group $energy 


 <skperg> : $end is missing 


 orbitals $uhfmo_beta  will be written to file beta

 orbitals $uhfmo_alpha  will be written to file alpha
 
 alpha: 

    irrep                  1a          2a          3a          4a          5a   
 eigenvalues H         -1.43655    -0.14578    -0.00059     0.56221     0.77257
            eV         -39.0907     -3.9668     -0.0161     15.2986     21.0230
 occupation              1.0000 

    irrep                  6a          7a          8a          9a         10a   
 eigenvalues H          0.77257     1.65887     1.76665     1.76665     5.05024
            eV          21.0230     45.1404     48.0735     48.0735    137.4252
 
 beta:  

    irrep                  1a          2a          3a          4a          5a   
 eigenvalues H         -0.61487    -0.10282     0.07444     0.69414     0.92262
            eV         -16.7317     -2.7978      2.0256     18.8887     25.1059

    irrep                  6a          7a          8a          9a         10a   
 eigenvalues H          0.92262     1.74156     1.82223     1.82223     5.12977
            eV          25.1059     47.3907     49.5859     49.5859    139.5891
 

                                             _ _ _ 
  IRREP     alpha occ.     beta occ.      tr(D*D-D)


 a          1.00000000     0.00000000    -0.25000000

   -------------------------------------------------

   sum      1.00000000     0.00000000    -0.25000000

 <S*S>     0.75000000

 
 
 
 ==============================================================================
                           electrostatic moments
 ==============================================================================
 
              nuc           elec       ->  total
 ------------------------------------------------------------------------------
                          charge      
 ------------------------------------------------------------------------------
           2.000000      -1.000000       1.000000
 a-b                                     1.000000
 
 ------------------------------------------------------------------------------
                       dipole moment  
 ------------------------------------------------------------------------------
   x       0.000000      -0.000000      -0.000000
   y       0.000000      -0.000000      -0.000000
   z       0.000000      -0.000000      -0.000000
 
   | dipole moment | =     0.0000 a.u. =     0.0000 debye 
 
 ------------------------------------------------------------------------------
                     quadrupole moment
 ------------------------------------------------------------------------------
  xx       0.000000      -0.448090      -0.448090
  yy       0.000000      -0.448090      -0.448090
  zz       0.500000      -0.513978      -0.013978
  xy       0.000000      -0.000000      -0.000000
  xz       0.000000      -0.000000      -0.000000
  yz       0.000000      -0.000000      -0.000000
 
     1/3  trace=      -0.303386
     anisotropy=       0.434112

 CONSTRUCTING NATURAL ORBITALS ...

 Print overlap matrix
  1.0000000000000004
  0.6847998247453734  1.0000000000000002
  0.7418488567700644  0.6209420357272180  1.0000000000000004
  0.6209420357272180  0.9408469394119157  0.6847998247453734  1.0000000000000002
  0.0000000000000000  0.0000000000000000  0.0000000000000000  0.0000000000000000  1.0000000000000009
  0.0000000000000000  0.0000000000000000  0.0000000000000000  0.0000000000000000  0.0000000000000000  1.0000000000000011
  0.0000000000000000  0.0000000000000000  0.5210490571437416  0.1187213219222735  0.0000000000000000  0.0000000000000000  1.0000000000000011
  0.0000000000000000  0.0000000000000000  0.0000000000000000  0.0000000000000000  0.6703200460356398  0.0000000000000000  0.0000000000000000  1.0000000000000009
  0.0000000000000000  0.0000000000000000  0.0000000000000000  0.0000000000000000  0.0000000000000000  0.6703200460356398  0.0000000000000000  0.0000000000000000  1.0000000000000011
 -0.5210490571437416 -0.1187213219222735  0.0000000000000000  0.0000000000000000  0.0000000000000000  0.0000000000000000  0.1340640092071280  0.0000000000000000  0.0000000000000000  1.0000000000000011
 END


 total number of electrons =     1.00000000000000

 => charge of molecule     =     1.00000000000000




------------------------------------------------------------------------

   Population Analysis Based On Occupation Numbers (PABOON)

------------------------------------------------------------------------

 
 CHOICE OF MAOs:
MAOs are selected due to their eigenvalues; determination of their number: 
 automatic; mixing options fix and eigenvalue thr=0.1
 
 ... and this is your MAO selection:
 (atoms for which the two selection methods (fixed/threshold) yield
 different numbers of MAOs are marked by an *)
 
   atom   nr. of MAOs      selection criterion
    1 h          1               eig
    2 h          1               eig
 


************************************************************************
*                                                                      *
*                     unassigned charge =  -0.000000                   *
*                                                                      *
************************************************************************



************************************************************************
*                                                                      *
*                       hypervalent contributions                      *
*                                                                      *
************************************************************************

              h    1            0.000000
              h    2           -0.000000


************************************************************************
*                                                                      *
*                        shared electron numbers                       *
*                                                                      *
************************************************************************



 TWO center shared electron numbers ge 0.1000E-01 :

  shared electron number for the pair       1 h  -   2 h   =     0.8471


************************************************************************
*                                                                      *
*              atomic charges with multicenter corrections             *
*              AS RESULTING FROM 2-CENTER SEN CONTRIBUTIONS            *
*                                                                      *
************************************************************************

                        -------------------------
                           atom   |     charge   
                        -------------------------
                            1 h   |    0.5000
                            2 h   |    0.5000
                        -------------------------


************************************************************************
*                                                                      *
*              atomic charges with multicenter corrections             *
*                                                                      *
************************************************************************

                        -------------------------
                           atom   |     charge   
                        -------------------------
                            1 h   |    0.5000
                            2 h   |    0.5000
                        -------------------------

 
 moments (from total density versus population analysis)
 <charge> =             1.000000            1.000000
 <xx  >   =            -0.448090            0.000000
 <yy  >   =            -0.448090            0.000000
 <zz  >   =            -0.013978            0.250000
 <xy  >   =            -0.000000            0.000000
 <xz  >   =            -0.000000            0.000000
 <yz  >   =            -0.000000            0.000000

 
 
 ==============================================================================
                      CALCULATION OF QUANTITIES ON GRID
 ==============================================================================
 
 
 output format: v1,v2,f(v1,v2)
 output format: v1,v2,f(v1,v2)
 Reasonable settings for gnuplot contour plots are in file 'gnuset'.
 Call gnuplot and use it by typing: 'load "gnuset"'
 ... and then follow further instructions ...
 
 
 quantities to be calculated are 
 density                     file: ..d.vec
 
 calculation at a plane of  500*  201 points
 
 origin at            0.00000        0.00000        0.00000
 
 normalised grid vectors:
                        x              y              z
  1. vector:         0.00000        0.00000        1.00000
  2. vector:         0.00000        1.00000        0.00000
 
                     minimum       increment       maximum
  1. vector:        -8.00000        0.03206        8.00000
  2. vector:        -5.00000        0.05000        5.00000
 
 
 ==============================================================================
 


    ------------------------------------------------------------------------
         total  cpu-time :   0.78 seconds
         total wall-time :   3.53 seconds
    ------------------------------------------------------------------------


   ****  dscf : all done  ****


    2015-03-30 11:14:39.943 

