 operating system is UNIX !
 hostname is         gplogin1.local

 dscf (gplogin1.local) : TURBOMOLE V6.6( ) 18 Mar 2015 at 17:33:10
 Copyright (C) 2015 TURBOMOLE GmbH, Karlsruhe


    2015-03-28 18:37:09.103 



                             d s c f - program

                   idea & directorship : reinhart ahlrichs
                   program development : marco haeser
                                         michael baer
                           dft version : oliver treutler


                          quantum chemistry group
                          universitaet  karlsruhe
                                  germany




                          References             
                                                 
          TURBOMOLE:                             
              R. Ahlrichs, M. Baer, M. Haeser, H. Horn, and
              C. Koelmel
              Electronic structure calculations on workstation
              computers: the program system TURBOMOLE
              Chem. Phys. Lett. 162: 165 (1989)
          Density Functional:                              
              O. Treutler and R. Ahlrichs                      
              Efficient Molecular Numerical Integration Schemes
              J. Chem. Phys. 102: 346 (1995)                   
          Parallel Version:                                
              Performance of parallel TURBOMOLE for Density    
              Functional Calculations                          
              M. v. Arnim and R. Ahlrichs                      
              J. Comp. Chem. 19: 1746 (1998)                   
                                         



 UHF mode switched on !


              +--------------------------------------------------+
              | Atomic coordinate, charge and isotop information |
              +--------------------------------------------------+

                    atomic coordinates            atom    charge  isotop
          0.00000000    0.00000000   -3.50000000    h      1.000     0
          0.00000000    0.00000000    3.50000000    h      1.000     0
 
       center of nuclear mass  :    0.00000000    0.00000000    0.00000000
       center of nuclear charge:    0.00000000    0.00000000    0.00000000

   *************************************************************************
   h-h/7.0                                                                  
   *************************************************************************



              +--------------------------------------------------+
              |               basis set information              |
              +--------------------------------------------------+

              we will work with the 1s 3p 5d 7f 9g ... basis set
              ...i.e. with spherical basis functions...

   type   atoms  prim   cont   basis
   ---------------------------------------------------------------------------
    h        2     36     33   def2-QZVPPD   [4s4p2d1f|7s4p2d1f]
   ---------------------------------------------------------------------------
   total:    2     72     66
   ---------------------------------------------------------------------------

   total number of primitive shells          :   14
   total number of contracted shells         :   22
   total number of cartesian basis functions :   76
   total number of SCF-basis functions       :   66


 integral neglect threshold       :  0.44E-11
 integral storage threshold THIZE :  0.10E-04
 integral storage threshold THIME :         5


 symmetry group of the molecule :   c1 

 the group has the following generators :
   c1(z)

    1 symmetry operations found

 there are 1 real representations :   a   

 maximum number of shells which are related by symmetry :  1

  missing beta occupation number declaration 

    mo occupation :
   irrep   mo's   occupied
    a       66        1
 
 number of basis functions   :           66
 number of occupied orbitals :            1
 

          ------------------------
          nuclear repulsion energy  :  0.142857142857    
          ------------------------

 
          -----------------
          -S,T+V- integrals
          -----------------

 1e-integrals will be neglected if expon. factor < 0.439732E-12
 
   Difference densities algorithm switched on.
   The maximal number of linear combinations of
   difference densities is          20 .

 automatic virtual orbital shift switched on 
      shift if e(lumo)-e(homo) < 0.10000000    


 DIIS switched on: error vector is FDS-SDF
 Max. Iterations for DIIS is     :   5
 DIIS matrix (see manual) 
    Scaling factor of diagonals  :  1.200
    threshold for scaling factor :  0.000

 scf convergence criterion : increment of total energy < .1000000D-07
                  and increment of one-electron energy < .1000000D-04


 <geterg> : there is no data group $energy 

  MOs are in ASCII format !


 reading orbital data $uhfmo_alpha  from file alpha . 

 orbital characterization : expanded
 

 reading orbital data $uhfmo_beta  from file beta . 

 orbital characterization : expanded
 
 mo provided and orthogonalized by Cholesky decomposition
 mo provided and orthogonalized by Cholesky decomposition

 DSCF restart information will be dumped onto file alpha

 
                                              current damping :  1.000
 ITERATION  ENERGY          1e-ENERGY        2e-ENERGY     NORM[dD(SAO)]  TOL
   1  -.50392159287859    -.64677873574    0.51430526504E-110.000D+00 0.439D-11
          max. resid. norm for Fia-block=  2.513D-02 for orbital      1a    alpha
          max. resid. fock norm         =  3.154D+00 for orbital     52a    beta 
          Delta Eig. =    77.9756804858 eV 
 
                                              current damping :  0.950
 ITERATION  ENERGY          1e-ENERGY        2e-ENERGY     NORM[dD(SAO)]  TOL
   2  -.50428110558678    -.64713824845    0.10133307388E-100.737D-02 0.280D-11
          Norm of current diis error: 0.55025E-01
          max. resid. norm for Fia-block=  2.246D-02 for orbital      1a    alpha
          max. resid. fock norm         =  7.559D-02 for orbital      1a    beta 
          Delta Eig. =    39.9890399293 eV 
 
                                              current damping :  0.800
 ITERATION  ENERGY          1e-ENERGY        2e-ENERGY     NORM[dD(SAO)]  TOL
   3  -.50467850461361    -.64753564749    0.14808796550E-100.226D-02 0.184D-11
          Norm of current diis error: 0.43787E-01
          max. resid. norm for Fia-block=  2.099D-02 for orbital      1a    alpha
          max. resid. fock norm         =  5.678D-02 for orbital      1a    beta 
          Delta Eig. =    21.1030517098 eV 
 
                                              current damping :  0.650
 ITERATION  ENERGY          1e-ENERGY        2e-ENERGY     NORM[dD(SAO)]  TOL
   4  -.50507796122404    -.64793510410    0.22961622187E-100.640D-03 0.135D-11
          Norm of current diis error: 0.29578E-01
          max. resid. norm for Fia-block=  1.661D-02 for orbital      1a    alpha
          max. resid. fock norm         =  3.670D-02 for orbital      1a    beta 
          Delta Eig. =    10.2219473373 eV 
 
                                              current damping :  0.500
 ITERATION  ENERGY          1e-ENERGY        2e-ENERGY     NORM[dD(SAO)]  TOL
   5  -.50533629712513    -.64819344001    0.32640418146E-100.212D-03 0.111D-11
          Norm of current diis error: 0.15581E-01
          max. resid. norm for Fia-block=  9.458D-03 for orbital      1a    alpha
          max. resid. fock norm         =  1.867D-02 for orbital      1a    beta 
 mo-orthogonalization: Cholesky decomposition
          Delta Eig. =     4.4181206730 eV 
 
                                              current damping :  0.350
 ITERATION  ENERGY          1e-ENERGY        2e-ENERGY     NORM[dD(SAO)]  TOL
   6  -.50542495439956    -.64828209729    0.34925944081E-100.452D-04 0.100D-11
          Norm of current diis error: 0.63346E-02
          max. resid. norm for Fia-block=  4.008D-03 for orbital      1a    alpha
          max. resid. fock norm         =  7.011D-03 for orbital      1a    beta 
          Delta Eig. =     1.6279507212 eV 
 
                                              current damping :  0.400
 ITERATION  ENERGY          1e-ENERGY        2e-ENERGY     NORM[dD(SAO)]  TOL
   7  -.50544210413480    -.64829924702    0.29212937624E-100.223D-04 0.948D-12
          Norm of current diis error: 0.19882E-02
          max. resid. norm for Fia-block=  1.311D-03 for orbital      1a    alpha
          max. resid. fock norm         =  1.835D-03 for orbital      1a    beta 
          Delta Eig. =     0.4029452658 eV 
 
                                              current damping :  0.250
 ITERATION  ENERGY          1e-ENERGY        2e-ENERGY     NORM[dD(SAO)]  TOL
   8  -.50544394132871    -.64830108421    0.24520763892E-100.229D-05 0.925D-12
          Norm of current diis error: 0.66928E-03
          max. resid. norm for Fia-block=  4.599D-04 for orbital      1a    alpha
          max. resid. fock norm         =  4.980D-04 for orbital      1a    beta 
          Delta Eig. =     0.1272442826 eV 
 
                                              current damping :  0.100
 ITERATION  ENERGY          1e-ENERGY        2e-ENERGY     NORM[dD(SAO)]  TOL
   9  -.50544418236009    -.64830132523    0.17438377131E-100.602D-06 0.911D-12
          Norm of current diis error: 0.17662E-03
          max. resid. norm for Fia-block=  1.288D-04 for orbital      1a    alpha
          max. resid. fock norm         =  1.288D-04 for orbital      1a    alpha
          Delta Eig. =     0.0281341220 eV 
 
                                              current damping :  0.150
 ITERATION  ENERGY          1e-ENERGY        2e-ENERGY     NORM[dD(SAO)]  TOL
  10  -.50544420225885    -.64830134514    0.25265827625E-100.187D-01 0.125D-11
          Norm of current diis error: 0.32796E-04
          max. resid. norm for Fia-block=  2.561D-05 for orbital      1a    alpha
          max. resid. fock norm         =  2.561D-05 for orbital      1a    alpha
 mo-orthogonalization: Cholesky decomposition
          Delta Eig. =     0.0021603473 eV 

 ENERGY CONVERGED !

 
                                              current damping :  0.100
 ITERATION  ENERGY          1e-ENERGY        2e-ENERGY     NORM[dD(SAO)]  TOL
  11  -.50544420302784    -.64830134592    0.34266010168E-100.258D-07 0.125D-11
          max. resid. norm for Fia-block=  5.030D-06 for orbital      1a    alpha
          max. resid. fock norm         =  5.030D-06 for orbital      1a    alpha
 Density matrix in CAO:
 
 Print from pmat
 
 Lower triangle of alpha RDM in AO basis:
  0.0084462381091026
  0.0189672053309093  0.0425935041633699
  0.0299671825450265  0.0672954867218100  0.1063233143663240
  0.0150734282977582  0.0338494849270471  0.0534803982013576  0.0269005251465493
  0.0084462381091030  0.0189672053309103  0.0299671825450280  0.0150734282977590  0.0084462381091034
  0.0189672053309081  0.0425935041633672  0.0672954867218057  0.0338494849270449  0.0189672053309091  0.0425935041633645
  0.0299671825450287  0.0672954867218150  0.1063233143663319  0.0534803982013615  0.0299671825450302  0.0672954867218107  0.1063233143663398
  0.0150734282977590  0.0338494849270489  0.0534803982013604  0.0269005251465508  0.0150734282977598  0.0338494849270467  0.0534803982013644  0.0269005251465522
 -0.0000000000000000 -0.0000000000000001 -0.0000000000000001 -0.0000000000000000 -0.0000000000000000 -0.0000000000000001 -0.0000000000000001 -0.0000000000000000  0.0000000000000000
 -0.0000000000000000 -0.0000000000000001 -0.0000000000000001 -0.0000000000000001 -0.0000000000000000 -0.0000000000000001 -0.0000000000000001 -0.0000000000000001  0.0000000000000000  0.0000000000000000
  0.0000541992503048  0.0001217119735476  0.0001922984891861  0.0000967257260224  0.0000541992503048  0.0001217119735476  0.0001922984891861  0.0000967257260224 -0.0000000000000000 -0.0000000000000000  0.0000003477949231
  0.0000000000000000  0.0000000000000000  0.0000000000000000  0.0000000000000000  0.0000000000000000  0.0000000000000000  0.0000000000000000  0.0000000000000000 -0.0000000000000000 -0.0000000000000000  0.0000000000000000  0.0000000000000000
 -0.0000000000000000 -0.0000000000000000 -0.0000000000000000 -0.0000000000000000 -0.0000000000000000 -0.0000000000000000 -0.0000000000000000 -0.0000000000000000  0.0000000000000000  0.0000000000000000 -0.0000000000000000 -0.0000000000000000  0.0000000000000000
  0.0000243634962595  0.0000547116278470  0.0000864414820435  0.0000434798793506  0.0000243634962595  0.0000547116278470  0.0000864414820435  0.0000434798793506 -0.0000000000000000 -0.0000000000000000  0.0000001563398066  0.0000000000000000 -0.0000000000000000  0.0000000702774350
 -0.0000000000000000 -0.0000000000000001 -0.0000000000000002 -0.0000000000000001 -0.0000000000000000 -0.0000000000000001 -0.0000000000000002 -0.0000000000000001  0.0000000000000000  0.0000000000000000 -0.0000000000000000 -0.0000000000000000  0.0000000000000000 -0.0000000000000000  0.0000000000000000
 -0.0000000000000000 -0.0000000000000000 -0.0000000000000000 -0.0000000000000000 -0.0000000000000000 -0.0000000000000000 -0.0000000000000000 -0.0000000000000000  0.0000000000000000  0.0000000000000000 -0.0000000000000000 -0.0000000000000000  0.0000000000000000 -0.0000000000000000  0.0000000000000000  0.0000000000000000
  0.0012330224197087  0.0027689237634711  0.0043747532873480  0.0022004914842475  0.0012330224197087  0.0027689237634709  0.0043747532873483  0.0022004914842476 -0.0000000000000000 -0.0000000000000000  0.0000079122669636  0.0000000000000000 -0.0000000000000000  0.0000035567002401 -0.0000000000000000 -0.0000000000000000  0.0001800025369716
 -0.0000000000000000 -0.0000000000000000 -0.0000000000000000 -0.0000000000000000 -0.0000000000000000 -0.0000000000000000 -0.0000000000000000 -0.0000000000000000  0.0000000000000000  0.0000000000000000 -0.0000000000000000 -0.0000000000000000  0.0000000000000000 -0.0000000000000000  0.0000000000000000  0.0000000000000000 -0.0000000000000000  0.0000000000000000
 -0.0000000000000001 -0.0000000000000003 -0.0000000000000004 -0.0000000000000002 -0.0000000000000001 -0.0000000000000003 -0.0000000000000004 -0.0000000000000002  0.0000000000000000  0.0000000000000000 -0.0000000000000000 -0.0000000000000000  0.0000000000000000 -0.0000000000000000  0.0000000000000000  0.0000000000000000 -0.0000000000000000  0.0000000000000000  0.0000000000000000
  0.0025174839907945  0.0056533613135078  0.0089320122558486  0.0044927829331615  0.0025174839907946  0.0056533613135074  0.0089320122558492  0.0044927829331618 -0.0000000000000000 -0.0000000000000000  0.0000161546173803  0.0000000000000000 -0.0000000000000000  0.0000072617786760 -0.0000000000000000 -0.0000000000000000  0.0003675144084041 -0.0000000000000000 -0.0000000000000000  0.0007503607596708
  0.0000000000000000  0.0000000000000000  0.0000000000000000  0.0000000000000000  0.0000000000000000  0.0000000000000000  0.0000000000000000  0.0000000000000000 -0.0000000000000000 -0.0000000000000000  0.0000000000000000  0.0000000000000000 -0.0000000000000000  0.0000000000000000 -0.0000000000000000 -0.0000000000000000  0.0000000000000000 -0.0000000000000000 -0.0000000000000000  0.0000000000000000  0.0000000000000000
  0.0000000000000000  0.0000000000000000  0.0000000000000000  0.0000000000000000  0.0000000000000000  0.0000000000000000  0.0000000000000000  0.0000000000000000 -0.0000000000000000 -0.0000000000000000  0.0000000000000000  0.0000000000000000 -0.0000000000000000  0.0000000000000000 -0.0000000000000000 -0.0000000000000000  0.0000000000000000 -0.0000000000000000 -0.0000000000000000  0.0000000000000000  0.0000000000000000  0.0000000000000000
 -0.0000541992503048 -0.0001217119735476 -0.0001922984891861 -0.0000967257260224 -0.0000541992503048 -0.0001217119735476 -0.0001922984891862 -0.0000967257260224  0.0000000000000000  0.0000000000000000 -0.0000003477949231 -0.0000000000000000  0.0000000000000000 -0.0000001563398066  0.0000000000000000  0.0000000000000000 -0.0000079122669636  0.0000000000000000  0.0000000000000000 -0.0000161546173803 -0.0000000000000000 -0.0000000000000000  0.0000003477949231
  0.0000000000000001  0.0000000000000001  0.0000000000000002  0.0000000000000001  0.0000000000000001  0.0000000000000001  0.0000000000000002  0.0000000000000001 -0.0000000000000000 -0.0000000000000000  0.0000000000000000  0.0000000000000000 -0.0000000000000000  0.0000000000000000 -0.0000000000000000 -0.0000000000000000  0.0000000000000000 -0.0000000000000000 -0.0000000000000000  0.0000000000000000  0.0000000000000000  0.0000000000000000 -0.0000000000000000  0.0000000000000000
 -0.0000000000000000 -0.0000000000000001 -0.0000000000000001 -0.0000000000000001 -0.0000000000000000 -0.0000000000000001 -0.0000000000000001 -0.0000000000000001  0.0000000000000000  0.0000000000000000 -0.0000000000000000 -0.0000000000000000  0.0000000000000000 -0.0000000000000000  0.0000000000000000  0.0000000000000000 -0.0000000000000000  0.0000000000000000  0.0000000000000000 -0.0000000000000000 -0.0000000000000000 -0.0000000000000000  0.0000000000000000 -0.0000000000000000  0.0000000000000000
 -0.0000243634962594 -0.0000547116278468 -0.0000864414820431 -0.0000434798793504 -0.0000243634962594 -0.0000547116278468 -0.0000864414820431 -0.0000434798793504  0.0000000000000000  0.0000000000000000 -0.0000001563398066 -0.0000000000000000  0.0000000000000000 -0.0000000702774350  0.0000000000000000  0.0000000000000000 -0.0000035567002401  0.0000000000000000  0.0000000000000000 -0.0000072617786760 -0.0000000000000000 -0.0000000000000000  0.0000001563398066 -0.0000000000000000  0.0000000000000000  0.0000000702774350
 -0.0000000000000000 -0.0000000000000000 -0.0000000000000000 -0.0000000000000000 -0.0000000000000000 -0.0000000000000000 -0.0000000000000000 -0.0000000000000000  0.0000000000000000  0.0000000000000000 -0.0000000000000000 -0.0000000000000000  0.0000000000000000 -0.0000000000000000  0.0000000000000000  0.0000000000000000 -0.0000000000000000  0.0000000000000000  0.0000000000000000 -0.0000000000000000 -0.0000000000000000 -0.0000000000000000  0.0000000000000000 -0.0000000000000000  0.0000000000000000  0.0000000000000000  0.0000000000000000
  0.0000000000000000  0.0000000000000001  0.0000000000000001  0.0000000000000001  0.0000000000000000  0.0000000000000001  0.0000000000000001  0.0000000000000001 -0.0000000000000000 -0.0000000000000000  0.0000000000000000  0.0000000000000000 -0.0000000000000000  0.0000000000000000 -0.0000000000000000 -0.0000000000000000  0.0000000000000000 -0.0000000000000000 -0.0000000000000000  0.0000000000000000  0.0000000000000000  0.0000000000000000 -0.0000000000000000  0.0000000000000000 -0.0000000000000000 -0.0000000000000000 -0.0000000000000000  0.0000000000000000
 -0.0012330224197087 -0.0027689237634712 -0.0043747532873481 -0.0022004914842476 -0.0012330224197088 -0.0027689237634710 -0.0043747532873485 -0.0022004914842477  0.0000000000000000  0.0000000000000000 -0.0000079122669636 -0.0000000000000000  0.0000000000000000 -0.0000035567002401  0.0000000000000000  0.0000000000000000 -0.0001800025369716  0.0000000000000000  0.0000000000000000 -0.0003675144084041 -0.0000000000000000 -0.0000000000000000  0.0000079122669636 -0.0000000000000000  0.0000000000000000  0.0000035567002401  0.0000000000000000 -0.0000000000000000  0.0001800025369716
 -0.0000000000000001 -0.0000000000000001 -0.0000000000000002 -0.0000000000000001 -0.0000000000000001 -0.0000000000000001 -0.0000000000000002 -0.0000000000000001  0.0000000000000000  0.0000000000000000 -0.0000000000000000 -0.0000000000000000  0.0000000000000000 -0.0000000000000000  0.0000000000000000  0.0000000000000000 -0.0000000000000000  0.0000000000000000  0.0000000000000000 -0.0000000000000000 -0.0000000000000000 -0.0000000000000000  0.0000000000000000 -0.0000000000000000  0.0000000000000000  0.0000000000000000  0.0000000000000000 -0.0000000000000000  0.0000000000000000  0.0000000000000000
  0.0000000000000000  0.0000000000000000  0.0000000000000001  0.0000000000000000  0.0000000000000000  0.0000000000000000  0.0000000000000001  0.0000000000000000 -0.0000000000000000 -0.0000000000000000  0.0000000000000000  0.0000000000000000 -0.0000000000000000  0.0000000000000000 -0.0000000000000000 -0.0000000000000000  0.0000000000000000 -0.0000000000000000 -0.0000000000000000  0.0000000000000000  0.0000000000000000  0.0000000000000000 -0.0000000000000000  0.0000000000000000 -0.0000000000000000 -0.0000000000000000 -0.0000000000000000  0.0000000000000000 -0.0000000000000000 -0.0000000000000000  0.0000000000000000
 -0.0025174839907943 -0.0056533613135075 -0.0089320122558481 -0.0044927829331613 -0.0025174839907945 -0.0056533613135071 -0.0089320122558488 -0.0044927829331615  0.0000000000000000  0.0000000000000000 -0.0000161546173803 -0.0000000000000000  0.0000000000000000 -0.0000072617786760  0.0000000000000000  0.0000000000000000 -0.0003675144084041  0.0000000000000000  0.0000000000000000 -0.0007503607596707 -0.0000000000000000 -0.0000000000000000  0.0000161546173803 -0.0000000000000000  0.0000000000000000  0.0000072617786760  0.0000000000000000 -0.0000000000000000  0.0003675144084041  0.0000000000000000 -0.0000000000000000  0.0007503607596707
  0.0000087675671618  0.0000196887945216  0.0000311072553508  0.0000156468824644  0.0000087675671618  0.0000196887945216  0.0000311072553508  0.0000156468824644 -0.0000000000000000 -0.0000000000000000  0.0000000562612090  0.0000000000000000 -0.0000000000000000  0.0000000252903822 -0.0000000000000000 -0.0000000000000000  0.0000012799315787 -0.0000000000000000 -0.0000000000000000  0.0000026132592620  0.0000000000000000  0.0000000000000000 -0.0000000562612090  0.0000000000000000 -0.0000000000000000 -0.0000000252903822 -0.0000000000000000  0.0000000000000000 -0.0000012799315787 -0.0000000000000000  0.0000000000000000 -0.0000026132592620  0.0000000091011209
  0.0000087675671618  0.0000196887945216  0.0000311072553508  0.0000156468824644  0.0000087675671618  0.0000196887945216  0.0000311072553508  0.0000156468824644 -0.0000000000000000 -0.0000000000000000  0.0000000562612090  0.0000000000000000 -0.0000000000000000  0.0000000252903822 -0.0000000000000000 -0.0000000000000000  0.0000012799315787 -0.0000000000000000 -0.0000000000000000  0.0000026132592620  0.0000000000000000  0.0000000000000000 -0.0000000562612090  0.0000000000000000 -0.0000000000000000 -0.0000000252903822 -0.0000000000000000  0.0000000000000000 -0.0000012799315787 -0.0000000000000000  0.0000000000000000 -0.0000026132592620  0.0000000091011209  0.0000000091011209
 -0.0000175351343236 -0.0000393775890432 -0.0000622145107017 -0.0000312937649288 -0.0000175351343236 -0.0000393775890432 -0.0000622145107017 -0.0000312937649288  0.0000000000000000  0.0000000000000000 -0.0000001125224179 -0.0000000000000000  0.0000000000000000 -0.0000000505807644  0.0000000000000000  0.0000000000000000 -0.0000025598631573  0.0000000000000000  0.0000000000000000 -0.0000052265185241 -0.0000000000000000 -0.0000000000000000  0.0000001125224179 -0.0000000000000000  0.0000000000000000  0.0000000505807644  0.0000000000000000 -0.0000000000000000  0.0000025598631573  0.0000000000000000 -0.0000000000000000  0.0000052265185241 -0.0000000182022417 -0.0000000182022417  0.0000000364044835
  0.0000000000000000  0.0000000000000000  0.0000000000000000  0.0000000000000000  0.0000000000000000  0.0000000000000000  0.0000000000000000  0.0000000000000000 -0.0000000000000000 -0.0000000000000000  0.0000000000000000  0.0000000000000000 -0.0000000000000000  0.0000000000000000 -0.0000000000000000 -0.0000000000000000  0.0000000000000000 -0.0000000000000000 -0.0000000000000000  0.0000000000000000  0.0000000000000000  0.0000000000000000 -0.0000000000000000  0.0000000000000000 -0.0000000000000000 -0.0000000000000000 -0.0000000000000000  0.0000000000000000 -0.0000000000000000 -0.0000000000000000  0.0000000000000000 -0.0000000000000000  0.0000000000000000  0.0000000000000000 -0.0000000000000000  0.0000000000000000
 -0.0000000000000000 -0.0000000000000000 -0.0000000000000000 -0.0000000000000000 -0.0000000000000000 -0.0000000000000000 -0.0000000000000000 -0.0000000000000000  0.0000000000000000  0.0000000000000000 -0.0000000000000000 -0.0000000000000000  0.0000000000000000 -0.0000000000000000  0.0000000000000000  0.0000000000000000 -0.0000000000000000  0.0000000000000000  0.0000000000000000 -0.0000000000000000 -0.0000000000000000 -0.0000000000000000  0.0000000000000000 -0.0000000000000000  0.0000000000000000  0.0000000000000000  0.0000000000000000 -0.0000000000000000  0.0000000000000000  0.0000000000000000 -0.0000000000000000  0.0000000000000000 -0.0000000000000000 -0.0000000000000000  0.0000000000000000 -0.0000000000000000  0.0000000000000000
 -0.0000000000000000 -0.0000000000000000 -0.0000000000000000 -0.0000000000000000 -0.0000000000000000 -0.0000000000000000 -0.0000000000000000 -0.0000000000000000  0.0000000000000000  0.0000000000000000 -0.0000000000000000 -0.0000000000000000  0.0000000000000000 -0.0000000000000000  0.0000000000000000  0.0000000000000000 -0.0000000000000000  0.0000000000000000  0.0000000000000000 -0.0000000000000000 -0.0000000000000000 -0.0000000000000000  0.0000000000000000 -0.0000000000000000  0.0000000000000000  0.0000000000000000  0.0000000000000000 -0.0000000000000000  0.0000000000000000  0.0000000000000000 -0.0000000000000000  0.0000000000000000 -0.0000000000000000 -0.0000000000000000  0.0000000000000000 -0.0000000000000000  0.0000000000000000  0.0000000000000000
 -0.0000474840330208 -0.0001066320168353 -0.0001684729541279 -0.0000847415331869 -0.0000474840330208 -0.0001066320168353 -0.0001684729541279 -0.0000847415331869  0.0000000000000000  0.0000000000000000 -0.0000003047035802 -0.0000000000000000  0.0000000000000000 -0.0000001369695059  0.0000000000000000  0.0000000000000000 -0.0000069319472807  0.0000000000000000  0.0000000000000000 -0.0000141530811000 -0.0000000000000000 -0.0000000000000000  0.0000003047035802 -0.0000000000000000  0.0000000000000000  0.0000001369695059  0.0000000000000000 -0.0000000000000000  0.0000069319472807  0.0000000000000000 -0.0000000000000000  0.0000141530811000 -0.0000000492905177 -0.0000000492905177  0.0000000985810353 -0.0000000000000000  0.0000000000000000  0.0000000000000000  0.0000002669511992
 -0.0000474840330208 -0.0001066320168353 -0.0001684729541278 -0.0000847415331869 -0.0000474840330208 -0.0001066320168353 -0.0001684729541278 -0.0000847415331869  0.0000000000000000  0.0000000000000000 -0.0000003047035802 -0.0000000000000000  0.0000000000000000 -0.0000001369695059  0.0000000000000000  0.0000000000000000 -0.0000069319472807  0.0000000000000000  0.0000000000000000 -0.0000141530811000 -0.0000000000000000 -0.0000000000000000  0.0000003047035802 -0.0000000000000000  0.0000000000000000  0.0000001369695059  0.0000000000000000 -0.0000000000000000  0.0000069319472807  0.0000000000000000 -0.0000000000000000  0.0000141530811000 -0.0000000492905177 -0.0000000492905177  0.0000000985810353 -0.0000000000000000  0.0000000000000000  0.0000000000000000  0.0000002669511992  0.0000002669511992
  0.0000949680660416  0.0002132640336706  0.0003369459082557  0.0001694830663738  0.0000949680660416  0.0002132640336706  0.0003369459082557  0.0001694830663738 -0.0000000000000000 -0.0000000000000000  0.0000006094071604  0.0000000000000000 -0.0000000000000000  0.0000002739390119 -0.0000000000000000 -0.0000000000000000  0.0000138638945615 -0.0000000000000000 -0.0000000000000000  0.0000283061622000  0.0000000000000000  0.0000000000000000 -0.0000006094071604  0.0000000000000000 -0.0000000000000000 -0.0000002739390119 -0.0000000000000000  0.0000000000000000 -0.0000138638945615 -0.0000000000000000  0.0000000000000000 -0.0000283061622000  0.0000000985810353  0.0000000985810353 -0.0000001971620706  0.0000000000000000 -0.0000000000000000 -0.0000000000000000 -0.0000005339023984 -0.0000005339023984  0.0000010678047968
 -0.0000000000000000 -0.0000000000000001 -0.0000000000000001 -0.0000000000000000 -0.0000000000000000 -0.0000000000000001 -0.0000000000000001 -0.0000000000000000  0.0000000000000000  0.0000000000000000 -0.0000000000000000 -0.0000000000000000  0.0000000000000000 -0.0000000000000000  0.0000000000000000  0.0000000000000000 -0.0000000000000000  0.0000000000000000  0.0000000000000000 -0.0000000000000000 -0.0000000000000000 -0.0000000000000000  0.0000000000000000 -0.0000000000000000  0.0000000000000000  0.0000000000000000  0.0000000000000000 -0.0000000000000000  0.0000000000000000  0.0000000000000000 -0.0000000000000000  0.0000000000000000 -0.0000000000000000 -0.0000000000000000  0.0000000000000000 -0.0000000000000000  0.0000000000000000  0.0000000000000000  0.0000000000000000  0.0000000000000000 -0.0000000000000000  0.0000000000000000
  0.0000000000000000  0.0000000000000000  0.0000000000000000  0.0000000000000000  0.0000000000000000  0.0000000000000000  0.0000000000000000  0.0000000000000000 -0.0000000000000000 -0.0000000000000000  0.0000000000000000  0.0000000000000000 -0.0000000000000000  0.0000000000000000 -0.0000000000000000 -0.0000000000000000  0.0000000000000000 -0.0000000000000000 -0.0000000000000000  0.0000000000000000  0.0000000000000000  0.0000000000000000 -0.0000000000000000  0.0000000000000000 -0.0000000000000000 -0.0000000000000000 -0.0000000000000000  0.0000000000000000 -0.0000000000000000 -0.0000000000000000  0.0000000000000000 -0.0000000000000000  0.0000000000000000  0.0000000000000000 -0.0000000000000000  0.0000000000000000 -0.0000000000000000 -0.0000000000000000 -0.0000000000000000 -0.0000000000000000  0.0000000000000000 -0.0000000000000000  0.0000000000000000
 -0.0000000000000000 -0.0000000000000000 -0.0000000000000001 -0.0000000000000000 -0.0000000000000000 -0.0000000000000000 -0.0000000000000001 -0.0000000000000000  0.0000000000000000  0.0000000000000000 -0.0000000000000000 -0.0000000000000000  0.0000000000000000 -0.0000000000000000  0.0000000000000000  0.0000000000000000 -0.0000000000000000  0.0000000000000000  0.0000000000000000 -0.0000000000000000 -0.0000000000000000 -0.0000000000000000  0.0000000000000000 -0.0000000000000000  0.0000000000000000  0.0000000000000000  0.0000000000000000 -0.0000000000000000  0.0000000000000000  0.0000000000000000 -0.0000000000000000  0.0000000000000000 -0.0000000000000000 -0.0000000000000000  0.0000000000000000 -0.0000000000000000  0.0000000000000000  0.0000000000000000  0.0000000000000000  0.0000000000000000 -0.0000000000000000  0.0000000000000000 -0.0000000000000000  0.0000000000000000
  0.0000087675671618  0.0000196887945216  0.0000311072553508  0.0000156468824644  0.0000087675671618  0.0000196887945216  0.0000311072553508  0.0000156468824644 -0.0000000000000000 -0.0000000000000000  0.0000000562612090  0.0000000000000000 -0.0000000000000000  0.0000000252903822 -0.0000000000000000 -0.0000000000000000  0.0000012799315787 -0.0000000000000000 -0.0000000000000000  0.0000026132592620  0.0000000000000000  0.0000000000000000 -0.0000000562612090  0.0000000000000000 -0.0000000000000000 -0.0000000252903822 -0.0000000000000000  0.0000000000000000 -0.0000012799315787 -0.0000000000000000  0.0000000000000000 -0.0000026132592620  0.0000000091011209  0.0000000091011209 -0.0000000182022417  0.0000000000000000 -0.0000000000000000 -0.0000000000000000 -0.0000000492905177 -0.0000000492905177  0.0000000985810353 -0.0000000000000000  0.0000000000000000 -0.0000000000000000  0.0000000091011209
  0.0000087675671618  0.0000196887945216  0.0000311072553508  0.0000156468824644  0.0000087675671618  0.0000196887945216  0.0000311072553508  0.0000156468824644 -0.0000000000000000 -0.0000000000000000  0.0000000562612090  0.0000000000000000 -0.0000000000000000  0.0000000252903822 -0.0000000000000000 -0.0000000000000000  0.0000012799315787 -0.0000000000000000 -0.0000000000000000  0.0000026132592620  0.0000000000000000  0.0000000000000000 -0.0000000562612090  0.0000000000000000 -0.0000000000000000 -0.0000000252903822 -0.0000000000000000  0.0000000000000000 -0.0000012799315787 -0.0000000000000000  0.0000000000000000 -0.0000026132592620  0.0000000091011209  0.0000000091011209 -0.0000000182022417  0.0000000000000000 -0.0000000000000000 -0.0000000000000000 -0.0000000492905177 -0.0000000492905177  0.0000000985810353 -0.0000000000000000  0.0000000000000000 -0.0000000000000000  0.0000000091011209  0.0000000091011209
 -0.0000175351343236 -0.0000393775890432 -0.0000622145107017 -0.0000312937649288 -0.0000175351343236 -0.0000393775890432 -0.0000622145107017 -0.0000312937649288  0.0000000000000000  0.0000000000000000 -0.0000001125224179 -0.0000000000000000  0.0000000000000000 -0.0000000505807644  0.0000000000000000  0.0000000000000000 -0.0000025598631573  0.0000000000000000  0.0000000000000000 -0.0000052265185241 -0.0000000000000000 -0.0000000000000000  0.0000001125224179 -0.0000000000000000  0.0000000000000000  0.0000000505807644  0.0000000000000000 -0.0000000000000000  0.0000025598631573  0.0000000000000000 -0.0000000000000000  0.0000052265185241 -0.0000000182022417 -0.0000000182022417  0.0000000364044835 -0.0000000000000000  0.0000000000000000  0.0000000000000000  0.0000000985810353  0.0000000985810353 -0.0000001971620706  0.0000000000000000 -0.0000000000000000  0.0000000000000000 -0.0000000182022417 -0.0000000182022417  0.0000000364044835
  0.0000000000000000  0.0000000000000000  0.0000000000000000  0.0000000000000000  0.0000000000000000  0.0000000000000000  0.0000000000000000  0.0000000000000000 -0.0000000000000000 -0.0000000000000000  0.0000000000000000  0.0000000000000000 -0.0000000000000000  0.0000000000000000 -0.0000000000000000 -0.0000000000000000  0.0000000000000000 -0.0000000000000000 -0.0000000000000000  0.0000000000000000  0.0000000000000000  0.0000000000000000 -0.0000000000000000  0.0000000000000000 -0.0000000000000000 -0.0000000000000000 -0.0000000000000000  0.0000000000000000 -0.0000000000000000 -0.0000000000000000  0.0000000000000000 -0.0000000000000000  0.0000000000000000  0.0000000000000000 -0.0000000000000000  0.0000000000000000 -0.0000000000000000 -0.0000000000000000 -0.0000000000000000 -0.0000000000000000  0.0000000000000000 -0.0000000000000000  0.0000000000000000 -0.0000000000000000  0.0000000000000000  0.0000000000000000 -0.0000000000000000  0.0000000000000000
  0.0000000000000000  0.0000000000000000  0.0000000000000000  0.0000000000000000  0.0000000000000000  0.0000000000000000  0.0000000000000000  0.0000000000000000 -0.0000000000000000 -0.0000000000000000  0.0000000000000000  0.0000000000000000 -0.0000000000000000  0.0000000000000000 -0.0000000000000000 -0.0000000000000000  0.0000000000000000 -0.0000000000000000 -0.0000000000000000  0.0000000000000000  0.0000000000000000  0.0000000000000000 -0.0000000000000000  0.0000000000000000 -0.0000000000000000 -0.0000000000000000 -0.0000000000000000  0.0000000000000000 -0.0000000000000000 -0.0000000000000000  0.0000000000000000 -0.0000000000000000  0.0000000000000000  0.0000000000000000 -0.0000000000000000  0.0000000000000000 -0.0000000000000000 -0.0000000000000000 -0.0000000000000000 -0.0000000000000000  0.0000000000000000 -0.0000000000000000  0.0000000000000000 -0.0000000000000000  0.0000000000000000  0.0000000000000000 -0.0000000000000000  0.0000000000000000  0.0000000000000000
 -0.0000000000000000 -0.0000000000000000 -0.0000000000000000 -0.0000000000000000 -0.0000000000000000 -0.0000000000000000 -0.0000000000000000 -0.0000000000000000  0.0000000000000000  0.0000000000000000 -0.0000000000000000 -0.0000000000000000  0.0000000000000000 -0.0000000000000000  0.0000000000000000  0.0000000000000000 -0.0000000000000000  0.0000000000000000  0.0000000000000000 -0.0000000000000000 -0.0000000000000000 -0.0000000000000000  0.0000000000000000 -0.0000000000000000  0.0000000000000000  0.0000000000000000  0.0000000000000000 -0.0000000000000000  0.0000000000000000  0.0000000000000000 -0.0000000000000000  0.0000000000000000 -0.0000000000000000 -0.0000000000000000  0.0000000000000000 -0.0000000000000000  0.0000000000000000  0.0000000000000000  0.0000000000000000  0.0000000000000000 -0.0000000000000000  0.0000000000000000 -0.0000000000000000  0.0000000000000000 -0.0000000000000000 -0.0000000000000000  0.0000000000000000 -0.0000000000000000 -0.0000000000000000  0.0000000000000000
 -0.0000474840330207 -0.0001066320168352 -0.0001684729541277 -0.0000847415331869 -0.0000474840330208 -0.0001066320168352 -0.0001684729541278 -0.0000847415331869  0.0000000000000000  0.0000000000000000 -0.0000003047035802 -0.0000000000000000  0.0000000000000000 -0.0000001369695059  0.0000000000000000  0.0000000000000000 -0.0000069319472807  0.0000000000000000  0.0000000000000000 -0.0000141530811000 -0.0000000000000000 -0.0000000000000000  0.0000003047035802 -0.0000000000000000  0.0000000000000000  0.0000001369695059  0.0000000000000000 -0.0000000000000000  0.0000069319472807  0.0000000000000000 -0.0000000000000000  0.0000141530811000 -0.0000000492905177 -0.0000000492905177  0.0000000985810353 -0.0000000000000000  0.0000000000000000  0.0000000000000000  0.0000002669511992  0.0000002669511992 -0.0000005339023984  0.0000000000000000 -0.0000000000000000  0.0000000000000000 -0.0000000492905177 -0.0000000492905177  0.0000000985810353 -0.0000000000000000 -0.0000000000000000  0.0000000000000000  0.0000002669511992
 -0.0000474840330208 -0.0001066320168352 -0.0001684729541278 -0.0000847415331869 -0.0000474840330208 -0.0001066320168352 -0.0001684729541278 -0.0000847415331869  0.0000000000000000  0.0000000000000000 -0.0000003047035802 -0.0000000000000000  0.0000000000000000 -0.0000001369695059  0.0000000000000000  0.0000000000000000 -0.0000069319472807  0.0000000000000000  0.0000000000000000 -0.0000141530811000 -0.0000000000000000 -0.0000000000000000  0.0000003047035802 -0.0000000000000000  0.0000000000000000  0.0000001369695059  0.0000000000000000 -0.0000000000000000  0.0000069319472807  0.0000000000000000 -0.0000000000000000  0.0000141530811000 -0.0000000492905177 -0.0000000492905177  0.0000000985810353 -0.0000000000000000  0.0000000000000000  0.0000000000000000  0.0000002669511992  0.0000002669511992 -0.0000005339023984  0.0000000000000000 -0.0000000000000000  0.0000000000000000 -0.0000000492905177 -0.0000000492905177  0.0000000985810353 -0.0000000000000000 -0.0000000000000000  0.0000000000000000  0.0000002669511992  0.0000002669511992
  0.0000949680660415  0.0002132640336705  0.0003369459082555  0.0001694830663737  0.0000949680660415  0.0002132640336705  0.0003369459082555  0.0001694830663737 -0.0000000000000000 -0.0000000000000000  0.0000006094071604  0.0000000000000000 -0.0000000000000000  0.0000002739390119 -0.0000000000000000 -0.0000000000000000  0.0000138638945615 -0.0000000000000000 -0.0000000000000000  0.0000283061622000  0.0000000000000000  0.0000000000000000 -0.0000006094071604  0.0000000000000000 -0.0000000000000000 -0.0000002739390119 -0.0000000000000000  0.0000000000000000 -0.0000138638945615 -0.0000000000000000  0.0000000000000000 -0.0000283061622000  0.0000000985810353  0.0000000985810353 -0.0000001971620706  0.0000000000000000 -0.0000000000000000 -0.0000000000000000 -0.0000005339023984 -0.0000005339023984  0.0000010678047968 -0.0000000000000000  0.0000000000000000 -0.0000000000000000  0.0000000985810353  0.0000000985810353 -0.0000001971620706  0.0000000000000000  0.0000000000000000 -0.0000000000000000 -0.0000005339023984 -0.0000005339023984  0.0000010678047968
  0.0000000000000000  0.0000000000000000  0.0000000000000000  0.0000000000000000  0.0000000000000000  0.0000000000000000  0.0000000000000000  0.0000000000000000 -0.0000000000000000 -0.0000000000000000  0.0000000000000000  0.0000000000000000 -0.0000000000000000  0.0000000000000000 -0.0000000000000000 -0.0000000000000000  0.0000000000000000 -0.0000000000000000 -0.0000000000000000  0.0000000000000000  0.0000000000000000  0.0000000000000000 -0.0000000000000000  0.0000000000000000 -0.0000000000000000 -0.0000000000000000 -0.0000000000000000  0.0000000000000000 -0.0000000000000000 -0.0000000000000000  0.0000000000000000 -0.0000000000000000  0.0000000000000000  0.0000000000000000 -0.0000000000000000  0.0000000000000000 -0.0000000000000000 -0.0000000000000000 -0.0000000000000000 -0.0000000000000000  0.0000000000000000 -0.0000000000000000  0.0000000000000000 -0.0000000000000000  0.0000000000000000  0.0000000000000000 -0.0000000000000000  0.0000000000000000  0.0000000000000000 -0.0000000000000000 -0.0000000000000000 -0.0000000000000000  0.0000000000000000  0.0000000000000000
 -0.0000000000000000 -0.0000000000000000 -0.0000000000000001 -0.0000000000000000 -0.0000000000000000 -0.0000000000000000 -0.0000000000000001 -0.0000000000000000  0.0000000000000000  0.0000000000000000 -0.0000000000000000 -0.0000000000000000  0.0000000000000000 -0.0000000000000000  0.0000000000000000  0.0000000000000000 -0.0000000000000000  0.0000000000000000  0.0000000000000000 -0.0000000000000000 -0.0000000000000000 -0.0000000000000000  0.0000000000000000 -0.0000000000000000  0.0000000000000000  0.0000000000000000  0.0000000000000000 -0.0000000000000000  0.0000000000000000  0.0000000000000000 -0.0000000000000000  0.0000000000000000 -0.0000000000000000 -0.0000000000000000  0.0000000000000000 -0.0000000000000000  0.0000000000000000  0.0000000000000000  0.0000000000000000  0.0000000000000000 -0.0000000000000000  0.0000000000000000 -0.0000000000000000  0.0000000000000000 -0.0000000000000000 -0.0000000000000000  0.0000000000000000 -0.0000000000000000 -0.0000000000000000  0.0000000000000000  0.0000000000000000  0.0000000000000000 -0.0000000000000000 -0.0000000000000000  0.0000000000000000
  0.0000000000000000  0.0000000000000000  0.0000000000000001  0.0000000000000000  0.0000000000000000  0.0000000000000000  0.0000000000000001  0.0000000000000000 -0.0000000000000000 -0.0000000000000000  0.0000000000000000  0.0000000000000000 -0.0000000000000000  0.0000000000000000 -0.0000000000000000 -0.0000000000000000  0.0000000000000000 -0.0000000000000000 -0.0000000000000000  0.0000000000000000  0.0000000000000000  0.0000000000000000 -0.0000000000000000  0.0000000000000000 -0.0000000000000000 -0.0000000000000000 -0.0000000000000000  0.0000000000000000 -0.0000000000000000 -0.0000000000000000  0.0000000000000000 -0.0000000000000000  0.0000000000000000  0.0000000000000000 -0.0000000000000000  0.0000000000000000 -0.0000000000000000 -0.0000000000000000 -0.0000000000000000 -0.0000000000000000  0.0000000000000000 -0.0000000000000000  0.0000000000000000 -0.0000000000000000  0.0000000000000000  0.0000000000000000 -0.0000000000000000  0.0000000000000000  0.0000000000000000 -0.0000000000000000 -0.0000000000000000 -0.0000000000000000  0.0000000000000000  0.0000000000000000 -0.0000000000000000  0.0000000000000000
  0.0000000000000000  0.0000000000000000  0.0000000000000000  0.0000000000000000  0.0000000000000000  0.0000000000000000  0.0000000000000000  0.0000000000000000 -0.0000000000000000 -0.0000000000000000  0.0000000000000000  0.0000000000000000 -0.0000000000000000  0.0000000000000000 -0.0000000000000000 -0.0000000000000000  0.0000000000000000 -0.0000000000000000 -0.0000000000000000  0.0000000000000000  0.0000000000000000  0.0000000000000000 -0.0000000000000000  0.0000000000000000 -0.0000000000000000 -0.0000000000000000 -0.0000000000000000  0.0000000000000000 -0.0000000000000000 -0.0000000000000000  0.0000000000000000 -0.0000000000000000  0.0000000000000000  0.0000000000000000 -0.0000000000000000  0.0000000000000000 -0.0000000000000000 -0.0000000000000000 -0.0000000000000000 -0.0000000000000000  0.0000000000000000 -0.0000000000000000  0.0000000000000000 -0.0000000000000000  0.0000000000000000  0.0000000000000000 -0.0000000000000000  0.0000000000000000  0.0000000000000000 -0.0000000000000000 -0.0000000000000000 -0.0000000000000000  0.0000000000000000  0.0000000000000000 -0.0000000000000000  0.0000000000000000  0.0000000000000000
 -0.0000000000000000 -0.0000000000000000 -0.0000000000000000 -0.0000000000000000 -0.0000000000000000 -0.0000000000000000 -0.0000000000000000 -0.0000000000000000  0.0000000000000000  0.0000000000000000 -0.0000000000000000 -0.0000000000000000  0.0000000000000000 -0.0000000000000000  0.0000000000000000  0.0000000000000000 -0.0000000000000000  0.0000000000000000  0.0000000000000000 -0.0000000000000000 -0.0000000000000000 -0.0000000000000000  0.0000000000000000 -0.0000000000000000  0.0000000000000000  0.0000000000000000  0.0000000000000000 -0.0000000000000000  0.0000000000000000  0.0000000000000000 -0.0000000000000000  0.0000000000000000 -0.0000000000000000 -0.0000000000000000  0.0000000000000000 -0.0000000000000000  0.0000000000000000  0.0000000000000000  0.0000000000000000  0.0000000000000000 -0.0000000000000000  0.0000000000000000 -0.0000000000000000  0.0000000000000000 -0.0000000000000000 -0.0000000000000000  0.0000000000000000 -0.0000000000000000 -0.0000000000000000  0.0000000000000000  0.0000000000000000  0.0000000000000000 -0.0000000000000000 -0.0000000000000000  0.0000000000000000 -0.0000000000000000 -0.0000000000000000  0.0000000000000000
  0.0000016147612625  0.0000036261715607  0.0000057291595257  0.0000028817549060  0.0000016147612625  0.0000036261715607  0.0000057291595257  0.0000028817549060 -0.0000000000000000 -0.0000000000000000  0.0000000103618734  0.0000000000000000 -0.0000000000000000  0.0000000046578405 -0.0000000000000000 -0.0000000000000000  0.0000002357306073 -0.0000000000000000 -0.0000000000000000  0.0000004812954092  0.0000000000000000  0.0000000000000000 -0.0000000103618734  0.0000000000000000 -0.0000000000000000 -0.0000000046578405 -0.0000000000000000  0.0000000000000000 -0.0000002357306073 -0.0000000000000000  0.0000000000000000 -0.0000004812954092  0.0000000016761933  0.0000000016761933 -0.0000000033523866  0.0000000000000000 -0.0000000000000000 -0.0000000000000000 -0.0000000090780506 -0.0000000090780506  0.0000000181561012 -0.0000000000000000  0.0000000000000000 -0.0000000000000000  0.0000000016761933  0.0000000016761933 -0.0000000033523866  0.0000000000000000  0.0000000000000000 -0.0000000000000000 -0.0000000090780506 -0.0000000090780506  0.0000000181561012  0.0000000000000000 -0.0000000000000000  0.0000000000000000  0.0000000000000000 -0.0000000000000000  0.0000000003087119
 -0.0000000000000000 -0.0000000000000000 -0.0000000000000000 -0.0000000000000000 -0.0000000000000000 -0.0000000000000000 -0.0000000000000000 -0.0000000000000000  0.0000000000000000  0.0000000000000000 -0.0000000000000000 -0.0000000000000000  0.0000000000000000 -0.0000000000000000  0.0000000000000000  0.0000000000000000 -0.0000000000000000  0.0000000000000000  0.0000000000000000 -0.0000000000000000 -0.0000000000000000 -0.0000000000000000  0.0000000000000000 -0.0000000000000000  0.0000000000000000  0.0000000000000000  0.0000000000000000 -0.0000000000000000  0.0000000000000000  0.0000000000000000 -0.0000000000000000  0.0000000000000000 -0.0000000000000000 -0.0000000000000000  0.0000000000000000 -0.0000000000000000  0.0000000000000000  0.0000000000000000  0.0000000000000000  0.0000000000000000 -0.0000000000000000  0.0000000000000000 -0.0000000000000000  0.0000000000000000 -0.0000000000000000 -0.0000000000000000  0.0000000000000000 -0.0000000000000000 -0.0000000000000000  0.0000000000000000  0.0000000000000000  0.0000000000000000 -0.0000000000000000 -0.0000000000000000  0.0000000000000000 -0.0000000000000000 -0.0000000000000000  0.0000000000000000 -0.0000000000000000  0.0000000000000000
 -0.0000024221418937 -0.0000054392573410 -0.0000085937392886 -0.0000043226323589 -0.0000024221418937 -0.0000054392573410 -0.0000085937392886 -0.0000043226323589  0.0000000000000000  0.0000000000000000 -0.0000000155428101 -0.0000000000000000  0.0000000000000000 -0.0000000069867608  0.0000000000000000  0.0000000000000000 -0.0000003535959110  0.0000000000000000  0.0000000000000000 -0.0000007219431139 -0.0000000000000000 -0.0000000000000000  0.0000000155428101 -0.0000000000000000  0.0000000000000000  0.0000000069867608  0.0000000000000000 -0.0000000000000000  0.0000003535959110  0.0000000000000000 -0.0000000000000000  0.0000007219431139 -0.0000000025142900 -0.0000000025142900  0.0000000050285799 -0.0000000000000000  0.0000000000000000  0.0000000000000000  0.0000000136170759  0.0000000136170759 -0.0000000272341519  0.0000000000000000 -0.0000000000000000  0.0000000000000000 -0.0000000025142900 -0.0000000025142900  0.0000000050285799 -0.0000000000000000 -0.0000000000000000  0.0000000000000000  0.0000000136170759  0.0000000136170759 -0.0000000272341519 -0.0000000000000000  0.0000000000000000 -0.0000000000000000 -0.0000000000000000  0.0000000000000000 -0.0000000004630678  0.0000000000000000  0.0000000006946017
 -0.0000000000000000 -0.0000000000000000 -0.0000000000000000 -0.0000000000000000 -0.0000000000000000 -0.0000000000000000 -0.0000000000000000 -0.0000000000000000  0.0000000000000000  0.0000000000000000 -0.0000000000000000 -0.0000000000000000  0.0000000000000000 -0.0000000000000000  0.0000000000000000  0.0000000000000000 -0.0000000000000000  0.0000000000000000  0.0000000000000000 -0.0000000000000000 -0.0000000000000000 -0.0000000000000000  0.0000000000000000 -0.0000000000000000  0.0000000000000000  0.0000000000000000  0.0000000000000000 -0.0000000000000000  0.0000000000000000  0.0000000000000000 -0.0000000000000000  0.0000000000000000 -0.0000000000000000 -0.0000000000000000  0.0000000000000000 -0.0000000000000000  0.0000000000000000  0.0000000000000000  0.0000000000000000  0.0000000000000000 -0.0000000000000000  0.0000000000000000 -0.0000000000000000  0.0000000000000000 -0.0000000000000000 -0.0000000000000000  0.0000000000000000 -0.0000000000000000 -0.0000000000000000  0.0000000000000000  0.0000000000000000  0.0000000000000000 -0.0000000000000000 -0.0000000000000000  0.0000000000000000 -0.0000000000000000 -0.0000000000000000  0.0000000000000000 -0.0000000000000000  0.0000000000000000  0.0000000000000000  0.0000000000000000
 -0.0000024221418937 -0.0000054392573410 -0.0000085937392886 -0.0000043226323590 -0.0000024221418937 -0.0000054392573410 -0.0000085937392886 -0.0000043226323590  0.0000000000000000  0.0000000000000000 -0.0000000155428101 -0.0000000000000000  0.0000000000000000 -0.0000000069867608  0.0000000000000000  0.0000000000000000 -0.0000003535959110  0.0000000000000000  0.0000000000000000 -0.0000007219431139 -0.0000000000000000 -0.0000000000000000  0.0000000155428101 -0.0000000000000000  0.0000000000000000  0.0000000069867608  0.0000000000000000 -0.0000000000000000  0.0000003535959110  0.0000000000000000 -0.0000000000000000  0.0000007219431139 -0.0000000025142900 -0.0000000025142900  0.0000000050285799 -0.0000000000000000  0.0000000000000000  0.0000000000000000  0.0000000136170759  0.0000000136170759 -0.0000000272341519  0.0000000000000000 -0.0000000000000000  0.0000000000000000 -0.0000000025142900 -0.0000000025142900  0.0000000050285799 -0.0000000000000000 -0.0000000000000000  0.0000000000000000  0.0000000136170759  0.0000000136170759 -0.0000000272341519 -0.0000000000000000  0.0000000000000000 -0.0000000000000000 -0.0000000000000000  0.0000000000000000 -0.0000000004630678  0.0000000000000000  0.0000000006946017  0.0000000000000000  0.0000000006946017
 -0.0000000000000000 -0.0000000000000000 -0.0000000000000000 -0.0000000000000000 -0.0000000000000000 -0.0000000000000000 -0.0000000000000000 -0.0000000000000000  0.0000000000000000  0.0000000000000000 -0.0000000000000000 -0.0000000000000000  0.0000000000000000 -0.0000000000000000  0.0000000000000000  0.0000000000000000 -0.0000000000000000  0.0000000000000000  0.0000000000000000 -0.0000000000000000 -0.0000000000000000 -0.0000000000000000  0.0000000000000000 -0.0000000000000000  0.0000000000000000  0.0000000000000000  0.0000000000000000 -0.0000000000000000  0.0000000000000000  0.0000000000000000 -0.0000000000000000  0.0000000000000000 -0.0000000000000000 -0.0000000000000000  0.0000000000000000 -0.0000000000000000  0.0000000000000000  0.0000000000000000  0.0000000000000000  0.0000000000000000 -0.0000000000000000  0.0000000000000000 -0.0000000000000000  0.0000000000000000 -0.0000000000000000 -0.0000000000000000  0.0000000000000000 -0.0000000000000000 -0.0000000000000000  0.0000000000000000  0.0000000000000000  0.0000000000000000 -0.0000000000000000 -0.0000000000000000  0.0000000000000000 -0.0000000000000000 -0.0000000000000000  0.0000000000000000 -0.0000000000000000  0.0000000000000000  0.0000000000000000  0.0000000000000000  0.0000000000000000  0.0000000000000000
  0.0000000000000000  0.0000000000000000  0.0000000000000000  0.0000000000000000  0.0000000000000000  0.0000000000000000  0.0000000000000000  0.0000000000000000 -0.0000000000000000 -0.0000000000000000  0.0000000000000000  0.0000000000000000 -0.0000000000000000  0.0000000000000000 -0.0000000000000000 -0.0000000000000000  0.0000000000000000 -0.0000000000000000 -0.0000000000000000  0.0000000000000000  0.0000000000000000  0.0000000000000000 -0.0000000000000000  0.0000000000000000 -0.0000000000000000 -0.0000000000000000 -0.0000000000000000  0.0000000000000000 -0.0000000000000000 -0.0000000000000000  0.0000000000000000 -0.0000000000000000  0.0000000000000000  0.0000000000000000 -0.0000000000000000  0.0000000000000000 -0.0000000000000000 -0.0000000000000000 -0.0000000000000000 -0.0000000000000000  0.0000000000000000 -0.0000000000000000  0.0000000000000000 -0.0000000000000000  0.0000000000000000  0.0000000000000000 -0.0000000000000000  0.0000000000000000  0.0000000000000000 -0.0000000000000000 -0.0000000000000000 -0.0000000000000000  0.0000000000000000  0.0000000000000000 -0.0000000000000000  0.0000000000000000  0.0000000000000000 -0.0000000000000000  0.0000000000000000 -0.0000000000000000 -0.0000000000000000 -0.0000000000000000 -0.0000000000000000 -0.0000000000000000  0.0000000000000000
 -0.0000000000000000 -0.0000000000000000 -0.0000000000000000 -0.0000000000000000 -0.0000000000000000 -0.0000000000000000 -0.0000000000000000 -0.0000000000000000  0.0000000000000000  0.0000000000000000 -0.0000000000000000 -0.0000000000000000  0.0000000000000000 -0.0000000000000000  0.0000000000000000  0.0000000000000000 -0.0000000000000000  0.0000000000000000  0.0000000000000000 -0.0000000000000000 -0.0000000000000000 -0.0000000000000000  0.0000000000000000 -0.0000000000000000  0.0000000000000000  0.0000000000000000  0.0000000000000000 -0.0000000000000000  0.0000000000000000  0.0000000000000000 -0.0000000000000000  0.0000000000000000 -0.0000000000000000 -0.0000000000000000  0.0000000000000000 -0.0000000000000000  0.0000000000000000  0.0000000000000000  0.0000000000000000  0.0000000000000000 -0.0000000000000000  0.0000000000000000 -0.0000000000000000  0.0000000000000000 -0.0000000000000000 -0.0000000000000000  0.0000000000000000 -0.0000000000000000 -0.0000000000000000  0.0000000000000000  0.0000000000000000  0.0000000000000000 -0.0000000000000000 -0.0000000000000000  0.0000000000000000 -0.0000000000000000 -0.0000000000000000  0.0000000000000000 -0.0000000000000000  0.0000000000000000  0.0000000000000000  0.0000000000000000  0.0000000000000000  0.0000000000000000 -0.0000000000000000  0.0000000000000000
 -0.0000000000000000 -0.0000000000000000 -0.0000000000000000 -0.0000000000000000 -0.0000000000000000 -0.0000000000000000 -0.0000000000000000 -0.0000000000000000  0.0000000000000000  0.0000000000000000 -0.0000000000000000 -0.0000000000000000  0.0000000000000000 -0.0000000000000000  0.0000000000000000  0.0000000000000000 -0.0000000000000000  0.0000000000000000  0.0000000000000000 -0.0000000000000000 -0.0000000000000000 -0.0000000000000000  0.0000000000000000 -0.0000000000000000  0.0000000000000000  0.0000000000000000  0.0000000000000000 -0.0000000000000000  0.0000000000000000  0.0000000000000000 -0.0000000000000000  0.0000000000000000 -0.0000000000000000 -0.0000000000000000  0.0000000000000000 -0.0000000000000000  0.0000000000000000  0.0000000000000000  0.0000000000000000  0.0000000000000000 -0.0000000000000000  0.0000000000000000 -0.0000000000000000  0.0000000000000000 -0.0000000000000000 -0.0000000000000000  0.0000000000000000 -0.0000000000000000 -0.0000000000000000  0.0000000000000000  0.0000000000000000  0.0000000000000000 -0.0000000000000000 -0.0000000000000000  0.0000000000000000 -0.0000000000000000 -0.0000000000000000  0.0000000000000000 -0.0000000000000000  0.0000000000000000  0.0000000000000000  0.0000000000000000  0.0000000000000000  0.0000000000000000 -0.0000000000000000  0.0000000000000000  0.0000000000000000
  0.0000000000000000  0.0000000000000000  0.0000000000000000  0.0000000000000000  0.0000000000000000  0.0000000000000000  0.0000000000000000  0.0000000000000000 -0.0000000000000000 -0.0000000000000000  0.0000000000000000  0.0000000000000000 -0.0000000000000000  0.0000000000000000 -0.0000000000000000 -0.0000000000000000  0.0000000000000000 -0.0000000000000000 -0.0000000000000000  0.0000000000000000  0.0000000000000000  0.0000000000000000 -0.0000000000000000  0.0000000000000000 -0.0000000000000000 -0.0000000000000000 -0.0000000000000000  0.0000000000000000 -0.0000000000000000 -0.0000000000000000  0.0000000000000000 -0.0000000000000000  0.0000000000000000  0.0000000000000000 -0.0000000000000000  0.0000000000000000 -0.0000000000000000 -0.0000000000000000 -0.0000000000000000 -0.0000000000000000  0.0000000000000000 -0.0000000000000000  0.0000000000000000 -0.0000000000000000  0.0000000000000000  0.0000000000000000 -0.0000000000000000  0.0000000000000000  0.0000000000000000 -0.0000000000000000 -0.0000000000000000 -0.0000000000000000  0.0000000000000000  0.0000000000000000 -0.0000000000000000  0.0000000000000000  0.0000000000000000 -0.0000000000000000  0.0000000000000000 -0.0000000000000000 -0.0000000000000000 -0.0000000000000000 -0.0000000000000000 -0.0000000000000000  0.0000000000000000 -0.0000000000000000 -0.0000000000000000  0.0000000000000000
 -0.0000016147612625 -0.0000036261715607 -0.0000057291595257 -0.0000028817549060 -0.0000016147612625 -0.0000036261715607 -0.0000057291595257 -0.0000028817549060  0.0000000000000000  0.0000000000000000 -0.0000000103618734 -0.0000000000000000  0.0000000000000000 -0.0000000046578405  0.0000000000000000  0.0000000000000000 -0.0000002357306073  0.0000000000000000  0.0000000000000000 -0.0000004812954092 -0.0000000000000000 -0.0000000000000000  0.0000000103618734 -0.0000000000000000  0.0000000000000000  0.0000000046578405  0.0000000000000000 -0.0000000000000000  0.0000002357306073  0.0000000000000000 -0.0000000000000000  0.0000004812954092 -0.0000000016761933 -0.0000000016761933  0.0000000033523866 -0.0000000000000000  0.0000000000000000  0.0000000000000000  0.0000000090780506  0.0000000090780506 -0.0000000181561012  0.0000000000000000 -0.0000000000000000  0.0000000000000000 -0.0000000016761933 -0.0000000016761933  0.0000000033523866 -0.0000000000000000 -0.0000000000000000  0.0000000000000000  0.0000000090780506  0.0000000090780506 -0.0000000181561012 -0.0000000000000000  0.0000000000000000 -0.0000000000000000 -0.0000000000000000  0.0000000000000000 -0.0000000003087119  0.0000000000000000  0.0000000004630678  0.0000000000000000  0.0000000004630678  0.0000000000000000 -0.0000000000000000  0.0000000000000000  0.0000000000000000 -0.0000000000000000  0.0000000003087119
 -0.0000000000000000 -0.0000000000000000 -0.0000000000000000 -0.0000000000000000 -0.0000000000000000 -0.0000000000000000 -0.0000000000000000 -0.0000000000000000  0.0000000000000000  0.0000000000000000 -0.0000000000000000 -0.0000000000000000  0.0000000000000000 -0.0000000000000000  0.0000000000000000  0.0000000000000000 -0.0000000000000000  0.0000000000000000  0.0000000000000000 -0.0000000000000000 -0.0000000000000000 -0.0000000000000000  0.0000000000000000 -0.0000000000000000  0.0000000000000000  0.0000000000000000  0.0000000000000000 -0.0000000000000000  0.0000000000000000  0.0000000000000000 -0.0000000000000000  0.0000000000000000 -0.0000000000000000 -0.0000000000000000  0.0000000000000000 -0.0000000000000000  0.0000000000000000  0.0000000000000000  0.0000000000000000  0.0000000000000000 -0.0000000000000000  0.0000000000000000 -0.0000000000000000  0.0000000000000000 -0.0000000000000000 -0.0000000000000000  0.0000000000000000 -0.0000000000000000 -0.0000000000000000  0.0000000000000000  0.0000000000000000  0.0000000000000000 -0.0000000000000000 -0.0000000000000000  0.0000000000000000 -0.0000000000000000 -0.0000000000000000  0.0000000000000000 -0.0000000000000000  0.0000000000000000  0.0000000000000000  0.0000000000000000  0.0000000000000000  0.0000000000000000 -0.0000000000000000  0.0000000000000000  0.0000000000000000 -0.0000000000000000  0.0000000000000000  0.0000000000000000
  0.0000024221418937  0.0000054392573410  0.0000085937392886  0.0000043226323590  0.0000024221418937  0.0000054392573410  0.0000085937392886  0.0000043226323590 -0.0000000000000000 -0.0000000000000000  0.0000000155428101  0.0000000000000000 -0.0000000000000000  0.0000000069867608 -0.0000000000000000 -0.0000000000000000  0.0000003535959110 -0.0000000000000000 -0.0000000000000000  0.0000007219431139  0.0000000000000000  0.0000000000000000 -0.0000000155428101  0.0000000000000000 -0.0000000000000000 -0.0000000069867608 -0.0000000000000000  0.0000000000000000 -0.0000003535959110 -0.0000000000000000  0.0000000000000000 -0.0000007219431139  0.0000000025142900  0.0000000025142900 -0.0000000050285799  0.0000000000000000 -0.0000000000000000 -0.0000000000000000 -0.0000000136170759 -0.0000000136170759  0.0000000272341519 -0.0000000000000000  0.0000000000000000 -0.0000000000000000  0.0000000025142900  0.0000000025142900 -0.0000000050285799  0.0000000000000000  0.0000000000000000 -0.0000000000000000 -0.0000000136170759 -0.0000000136170759  0.0000000272341519  0.0000000000000000 -0.0000000000000000  0.0000000000000000  0.0000000000000000 -0.0000000000000000  0.0000000004630678 -0.0000000000000000 -0.0000000006946017 -0.0000000000000000 -0.0000000006946017 -0.0000000000000000  0.0000000000000000 -0.0000000000000000 -0.0000000000000000  0.0000000000000000 -0.0000000004630678 -0.0000000000000000  0.0000000006946017
 -0.0000000000000000 -0.0000000000000000 -0.0000000000000000 -0.0000000000000000 -0.0000000000000000 -0.0000000000000000 -0.0000000000000000 -0.0000000000000000  0.0000000000000000  0.0000000000000000 -0.0000000000000000 -0.0000000000000000  0.0000000000000000 -0.0000000000000000  0.0000000000000000  0.0000000000000000 -0.0000000000000000  0.0000000000000000  0.0000000000000000 -0.0000000000000000 -0.0000000000000000 -0.0000000000000000  0.0000000000000000 -0.0000000000000000  0.0000000000000000  0.0000000000000000  0.0000000000000000 -0.0000000000000000  0.0000000000000000  0.0000000000000000 -0.0000000000000000  0.0000000000000000 -0.0000000000000000 -0.0000000000000000  0.0000000000000000 -0.0000000000000000  0.0000000000000000  0.0000000000000000  0.0000000000000000  0.0000000000000000 -0.0000000000000000  0.0000000000000000 -0.0000000000000000  0.0000000000000000 -0.0000000000000000 -0.0000000000000000  0.0000000000000000 -0.0000000000000000 -0.0000000000000000  0.0000000000000000  0.0000000000000000  0.0000000000000000 -0.0000000000000000 -0.0000000000000000  0.0000000000000000 -0.0000000000000000 -0.0000000000000000  0.0000000000000000 -0.0000000000000000  0.0000000000000000  0.0000000000000000  0.0000000000000000  0.0000000000000000  0.0000000000000000 -0.0000000000000000  0.0000000000000000  0.0000000000000000 -0.0000000000000000  0.0000000000000000  0.0000000000000000 -0.0000000000000000  0.0000000000000000
  0.0000024221418937  0.0000054392573410  0.0000085937392885  0.0000043226323589  0.0000024221418937  0.0000054392573410  0.0000085937392885  0.0000043226323589 -0.0000000000000000 -0.0000000000000000  0.0000000155428101  0.0000000000000000 -0.0000000000000000  0.0000000069867608 -0.0000000000000000 -0.0000000000000000  0.0000003535959110 -0.0000000000000000 -0.0000000000000000  0.0000007219431139  0.0000000000000000  0.0000000000000000 -0.0000000155428101  0.0000000000000000 -0.0000000000000000 -0.0000000069867608 -0.0000000000000000  0.0000000000000000 -0.0000003535959110 -0.0000000000000000  0.0000000000000000 -0.0000007219431139  0.0000000025142900  0.0000000025142900 -0.0000000050285799  0.0000000000000000 -0.0000000000000000 -0.0000000000000000 -0.0000000136170759 -0.0000000136170759  0.0000000272341519 -0.0000000000000000  0.0000000000000000 -0.0000000000000000  0.0000000025142900  0.0000000025142900 -0.0000000050285799  0.0000000000000000  0.0000000000000000 -0.0000000000000000 -0.0000000136170759 -0.0000000136170759  0.0000000272341519  0.0000000000000000 -0.0000000000000000  0.0000000000000000  0.0000000000000000 -0.0000000000000000  0.0000000004630678 -0.0000000000000000 -0.0000000006946017 -0.0000000000000000 -0.0000000006946017 -0.0000000000000000  0.0000000000000000 -0.0000000000000000 -0.0000000000000000  0.0000000000000000 -0.0000000004630678 -0.0000000000000000  0.0000000006946017 -0.0000000000000000  0.0000000006946017
  0.0000000000000000  0.0000000000000000  0.0000000000000000  0.0000000000000000  0.0000000000000000  0.0000000000000000  0.0000000000000000  0.0000000000000000 -0.0000000000000000 -0.0000000000000000  0.0000000000000000  0.0000000000000000 -0.0000000000000000  0.0000000000000000 -0.0000000000000000 -0.0000000000000000  0.0000000000000000 -0.0000000000000000 -0.0000000000000000  0.0000000000000000  0.0000000000000000  0.0000000000000000 -0.0000000000000000  0.0000000000000000 -0.0000000000000000 -0.0000000000000000 -0.0000000000000000  0.0000000000000000 -0.0000000000000000 -0.0000000000000000  0.0000000000000000 -0.0000000000000000  0.0000000000000000  0.0000000000000000 -0.0000000000000000  0.0000000000000000 -0.0000000000000000 -0.0000000000000000 -0.0000000000000000 -0.0000000000000000  0.0000000000000000 -0.0000000000000000  0.0000000000000000 -0.0000000000000000  0.0000000000000000  0.0000000000000000 -0.0000000000000000  0.0000000000000000  0.0000000000000000 -0.0000000000000000 -0.0000000000000000 -0.0000000000000000  0.0000000000000000  0.0000000000000000 -0.0000000000000000  0.0000000000000000  0.0000000000000000 -0.0000000000000000  0.0000000000000000 -0.0000000000000000 -0.0000000000000000 -0.0000000000000000 -0.0000000000000000 -0.0000000000000000  0.0000000000000000 -0.0000000000000000 -0.0000000000000000  0.0000000000000000 -0.0000000000000000 -0.0000000000000000  0.0000000000000000 -0.0000000000000000  0.0000000000000000  0.0000000000000000
 -0.0000000000000000 -0.0000000000000000 -0.0000000000000000 -0.0000000000000000 -0.0000000000000000 -0.0000000000000000 -0.0000000000000000 -0.0000000000000000  0.0000000000000000  0.0000000000000000 -0.0000000000000000 -0.0000000000000000  0.0000000000000000 -0.0000000000000000  0.0000000000000000  0.0000000000000000 -0.0000000000000000  0.0000000000000000  0.0000000000000000 -0.0000000000000000 -0.0000000000000000 -0.0000000000000000  0.0000000000000000 -0.0000000000000000  0.0000000000000000  0.0000000000000000  0.0000000000000000 -0.0000000000000000  0.0000000000000000  0.0000000000000000 -0.0000000000000000  0.0000000000000000 -0.0000000000000000 -0.0000000000000000  0.0000000000000000 -0.0000000000000000  0.0000000000000000  0.0000000000000000  0.0000000000000000  0.0000000000000000 -0.0000000000000000  0.0000000000000000 -0.0000000000000000  0.0000000000000000 -0.0000000000000000 -0.0000000000000000  0.0000000000000000 -0.0000000000000000 -0.0000000000000000  0.0000000000000000  0.0000000000000000  0.0000000000000000 -0.0000000000000000 -0.0000000000000000  0.0000000000000000 -0.0000000000000000 -0.0000000000000000  0.0000000000000000 -0.0000000000000000  0.0000000000000000  0.0000000000000000  0.0000000000000000  0.0000000000000000  0.0000000000000000 -0.0000000000000000  0.0000000000000000  0.0000000000000000 -0.0000000000000000  0.0000000000000000  0.0000000000000000 -0.0000000000000000  0.0000000000000000 -0.0000000000000000 -0.0000000000000000  0.0000000000000000
  0.0000000000000000  0.0000000000000000  0.0000000000000000  0.0000000000000000  0.0000000000000000  0.0000000000000000  0.0000000000000000  0.0000000000000000 -0.0000000000000000 -0.0000000000000000  0.0000000000000000  0.0000000000000000 -0.0000000000000000  0.0000000000000000 -0.0000000000000000 -0.0000000000000000  0.0000000000000000 -0.0000000000000000 -0.0000000000000000  0.0000000000000000  0.0000000000000000  0.0000000000000000 -0.0000000000000000  0.0000000000000000 -0.0000000000000000 -0.0000000000000000 -0.0000000000000000  0.0000000000000000 -0.0000000000000000 -0.0000000000000000  0.0000000000000000 -0.0000000000000000  0.0000000000000000  0.0000000000000000 -0.0000000000000000  0.0000000000000000 -0.0000000000000000 -0.0000000000000000 -0.0000000000000000 -0.0000000000000000  0.0000000000000000 -0.0000000000000000  0.0000000000000000 -0.0000000000000000  0.0000000000000000  0.0000000000000000 -0.0000000000000000  0.0000000000000000  0.0000000000000000 -0.0000000000000000 -0.0000000000000000 -0.0000000000000000  0.0000000000000000  0.0000000000000000 -0.0000000000000000  0.0000000000000000  0.0000000000000000 -0.0000000000000000  0.0000000000000000 -0.0000000000000000 -0.0000000000000000 -0.0000000000000000 -0.0000000000000000 -0.0000000000000000  0.0000000000000000 -0.0000000000000000 -0.0000000000000000  0.0000000000000000 -0.0000000000000000 -0.0000000000000000  0.0000000000000000 -0.0000000000000000  0.0000000000000000  0.0000000000000000 -0.0000000000000000  0.0000000000000000
 END
 
 Lower triangle of beta RDM in AO basis:
  0.0000000000000000
  0.0000000000000000  0.0000000000000000
  0.0000000000000000  0.0000000000000000  0.0000000000000000
  0.0000000000000000  0.0000000000000000  0.0000000000000000  0.0000000000000000
  0.0000000000000000  0.0000000000000000  0.0000000000000000  0.0000000000000000  0.0000000000000000
  0.0000000000000000  0.0000000000000000  0.0000000000000000  0.0000000000000000  0.0000000000000000  0.0000000000000000
  0.0000000000000000  0.0000000000000000  0.0000000000000000  0.0000000000000000  0.0000000000000000  0.0000000000000000  0.0000000000000000
  0.0000000000000000  0.0000000000000000  0.0000000000000000  0.0000000000000000  0.0000000000000000  0.0000000000000000  0.0000000000000000  0.0000000000000000
  0.0000000000000000  0.0000000000000000  0.0000000000000000  0.0000000000000000  0.0000000000000000  0.0000000000000000  0.0000000000000000  0.0000000000000000  0.0000000000000000
  0.0000000000000000  0.0000000000000000  0.0000000000000000  0.0000000000000000  0.0000000000000000  0.0000000000000000  0.0000000000000000  0.0000000000000000  0.0000000000000000  0.0000000000000000
  0.0000000000000000  0.0000000000000000  0.0000000000000000  0.0000000000000000  0.0000000000000000  0.0000000000000000  0.0000000000000000  0.0000000000000000  0.0000000000000000  0.0000000000000000  0.0000000000000000
  0.0000000000000000  0.0000000000000000  0.0000000000000000  0.0000000000000000  0.0000000000000000  0.0000000000000000  0.0000000000000000  0.0000000000000000  0.0000000000000000  0.0000000000000000  0.0000000000000000  0.0000000000000000
  0.0000000000000000  0.0000000000000000  0.0000000000000000  0.0000000000000000  0.0000000000000000  0.0000000000000000  0.0000000000000000  0.0000000000000000  0.0000000000000000  0.0000000000000000  0.0000000000000000  0.0000000000000000  0.0000000000000000
  0.0000000000000000  0.0000000000000000  0.0000000000000000  0.0000000000000000  0.0000000000000000  0.0000000000000000  0.0000000000000000  0.0000000000000000  0.0000000000000000  0.0000000000000000  0.0000000000000000  0.0000000000000000  0.0000000000000000  0.0000000000000000
  0.0000000000000000  0.0000000000000000  0.0000000000000000  0.0000000000000000  0.0000000000000000  0.0000000000000000  0.0000000000000000  0.0000000000000000  0.0000000000000000  0.0000000000000000  0.0000000000000000  0.0000000000000000  0.0000000000000000  0.0000000000000000  0.0000000000000000
  0.0000000000000000  0.0000000000000000  0.0000000000000000  0.0000000000000000  0.0000000000000000  0.0000000000000000  0.0000000000000000  0.0000000000000000  0.0000000000000000  0.0000000000000000  0.0000000000000000  0.0000000000000000  0.0000000000000000  0.0000000000000000  0.0000000000000000  0.0000000000000000
  0.0000000000000000  0.0000000000000000  0.0000000000000000  0.0000000000000000  0.0000000000000000  0.0000000000000000  0.0000000000000000  0.0000000000000000  0.0000000000000000  0.0000000000000000  0.0000000000000000  0.0000000000000000  0.0000000000000000  0.0000000000000000  0.0000000000000000  0.0000000000000000  0.0000000000000000
  0.0000000000000000  0.0000000000000000  0.0000000000000000  0.0000000000000000  0.0000000000000000  0.0000000000000000  0.0000000000000000  0.0000000000000000  0.0000000000000000  0.0000000000000000  0.0000000000000000  0.0000000000000000  0.0000000000000000  0.0000000000000000  0.0000000000000000  0.0000000000000000  0.0000000000000000  0.0000000000000000
  0.0000000000000000  0.0000000000000000  0.0000000000000000  0.0000000000000000  0.0000000000000000  0.0000000000000000  0.0000000000000000  0.0000000000000000  0.0000000000000000  0.0000000000000000  0.0000000000000000  0.0000000000000000  0.0000000000000000  0.0000000000000000  0.0000000000000000  0.0000000000000000  0.0000000000000000  0.0000000000000000  0.0000000000000000
  0.0000000000000000  0.0000000000000000  0.0000000000000000  0.0000000000000000  0.0000000000000000  0.0000000000000000  0.0000000000000000  0.0000000000000000  0.0000000000000000  0.0000000000000000  0.0000000000000000  0.0000000000000000  0.0000000000000000  0.0000000000000000  0.0000000000000000  0.0000000000000000  0.0000000000000000  0.0000000000000000  0.0000000000000000  0.0000000000000000
  0.0000000000000000  0.0000000000000000  0.0000000000000000  0.0000000000000000  0.0000000000000000  0.0000000000000000  0.0000000000000000  0.0000000000000000  0.0000000000000000  0.0000000000000000  0.0000000000000000  0.0000000000000000  0.0000000000000000  0.0000000000000000  0.0000000000000000  0.0000000000000000  0.0000000000000000  0.0000000000000000  0.0000000000000000  0.0000000000000000  0.0000000000000000
  0.0000000000000000  0.0000000000000000  0.0000000000000000  0.0000000000000000  0.0000000000000000  0.0000000000000000  0.0000000000000000  0.0000000000000000  0.0000000000000000  0.0000000000000000  0.0000000000000000  0.0000000000000000  0.0000000000000000  0.0000000000000000  0.0000000000000000  0.0000000000000000  0.0000000000000000  0.0000000000000000  0.0000000000000000  0.0000000000000000  0.0000000000000000  0.0000000000000000
  0.0000000000000000  0.0000000000000000  0.0000000000000000  0.0000000000000000  0.0000000000000000  0.0000000000000000  0.0000000000000000  0.0000000000000000  0.0000000000000000  0.0000000000000000  0.0000000000000000  0.0000000000000000  0.0000000000000000  0.0000000000000000  0.0000000000000000  0.0000000000000000  0.0000000000000000  0.0000000000000000  0.0000000000000000  0.0000000000000000  0.0000000000000000  0.0000000000000000  0.0000000000000000
  0.0000000000000000  0.0000000000000000  0.0000000000000000  0.0000000000000000  0.0000000000000000  0.0000000000000000  0.0000000000000000  0.0000000000000000  0.0000000000000000  0.0000000000000000  0.0000000000000000  0.0000000000000000  0.0000000000000000  0.0000000000000000  0.0000000000000000  0.0000000000000000  0.0000000000000000  0.0000000000000000  0.0000000000000000  0.0000000000000000  0.0000000000000000  0.0000000000000000  0.0000000000000000  0.0000000000000000
  0.0000000000000000  0.0000000000000000  0.0000000000000000  0.0000000000000000  0.0000000000000000  0.0000000000000000  0.0000000000000000  0.0000000000000000  0.0000000000000000  0.0000000000000000  0.0000000000000000  0.0000000000000000  0.0000000000000000  0.0000000000000000  0.0000000000000000  0.0000000000000000  0.0000000000000000  0.0000000000000000  0.0000000000000000  0.0000000000000000  0.0000000000000000  0.0000000000000000  0.0000000000000000  0.0000000000000000  0.0000000000000000
  0.0000000000000000  0.0000000000000000  0.0000000000000000  0.0000000000000000  0.0000000000000000  0.0000000000000000  0.0000000000000000  0.0000000000000000  0.0000000000000000  0.0000000000000000  0.0000000000000000  0.0000000000000000  0.0000000000000000  0.0000000000000000  0.0000000000000000  0.0000000000000000  0.0000000000000000  0.0000000000000000  0.0000000000000000  0.0000000000000000  0.0000000000000000  0.0000000000000000  0.0000000000000000  0.0000000000000000  0.0000000000000000  0.0000000000000000
  0.0000000000000000  0.0000000000000000  0.0000000000000000  0.0000000000000000  0.0000000000000000  0.0000000000000000  0.0000000000000000  0.0000000000000000  0.0000000000000000  0.0000000000000000  0.0000000000000000  0.0000000000000000  0.0000000000000000  0.0000000000000000  0.0000000000000000  0.0000000000000000  0.0000000000000000  0.0000000000000000  0.0000000000000000  0.0000000000000000  0.0000000000000000  0.0000000000000000  0.0000000000000000  0.0000000000000000  0.0000000000000000  0.0000000000000000  0.0000000000000000
  0.0000000000000000  0.0000000000000000  0.0000000000000000  0.0000000000000000  0.0000000000000000  0.0000000000000000  0.0000000000000000  0.0000000000000000  0.0000000000000000  0.0000000000000000  0.0000000000000000  0.0000000000000000  0.0000000000000000  0.0000000000000000  0.0000000000000000  0.0000000000000000  0.0000000000000000  0.0000000000000000  0.0000000000000000  0.0000000000000000  0.0000000000000000  0.0000000000000000  0.0000000000000000  0.0000000000000000  0.0000000000000000  0.0000000000000000  0.0000000000000000  0.0000000000000000
  0.0000000000000000  0.0000000000000000  0.0000000000000000  0.0000000000000000  0.0000000000000000  0.0000000000000000  0.0000000000000000  0.0000000000000000  0.0000000000000000  0.0000000000000000  0.0000000000000000  0.0000000000000000  0.0000000000000000  0.0000000000000000  0.0000000000000000  0.0000000000000000  0.0000000000000000  0.0000000000000000  0.0000000000000000  0.0000000000000000  0.0000000000000000  0.0000000000000000  0.0000000000000000  0.0000000000000000  0.0000000000000000  0.0000000000000000  0.0000000000000000  0.0000000000000000  0.0000000000000000
  0.0000000000000000  0.0000000000000000  0.0000000000000000  0.0000000000000000  0.0000000000000000  0.0000000000000000  0.0000000000000000  0.0000000000000000  0.0000000000000000  0.0000000000000000  0.0000000000000000  0.0000000000000000  0.0000000000000000  0.0000000000000000  0.0000000000000000  0.0000000000000000  0.0000000000000000  0.0000000000000000  0.0000000000000000  0.0000000000000000  0.0000000000000000  0.0000000000000000  0.0000000000000000  0.0000000000000000  0.0000000000000000  0.0000000000000000  0.0000000000000000  0.0000000000000000  0.0000000000000000  0.0000000000000000
  0.0000000000000000  0.0000000000000000  0.0000000000000000  0.0000000000000000  0.0000000000000000  0.0000000000000000  0.0000000000000000  0.0000000000000000  0.0000000000000000  0.0000000000000000  0.0000000000000000  0.0000000000000000  0.0000000000000000  0.0000000000000000  0.0000000000000000  0.0000000000000000  0.0000000000000000  0.0000000000000000  0.0000000000000000  0.0000000000000000  0.0000000000000000  0.0000000000000000  0.0000000000000000  0.0000000000000000  0.0000000000000000  0.0000000000000000  0.0000000000000000  0.0000000000000000  0.0000000000000000  0.0000000000000000  0.0000000000000000
  0.0000000000000000  0.0000000000000000  0.0000000000000000  0.0000000000000000  0.0000000000000000  0.0000000000000000  0.0000000000000000  0.0000000000000000  0.0000000000000000  0.0000000000000000  0.0000000000000000  0.0000000000000000  0.0000000000000000  0.0000000000000000  0.0000000000000000  0.0000000000000000  0.0000000000000000  0.0000000000000000  0.0000000000000000  0.0000000000000000  0.0000000000000000  0.0000000000000000  0.0000000000000000  0.0000000000000000  0.0000000000000000  0.0000000000000000  0.0000000000000000  0.0000000000000000  0.0000000000000000  0.0000000000000000  0.0000000000000000  0.0000000000000000
[...]
  0.0000000000000000  0.0000000000000000  0.0000000000000000  0.0000000000000000  0.0000000000000000  0.0000000000000000  0.0000000000000000  0.0000000000000000  0.0000000000000000 -0.0000000000000004  0.0000000000000000  0.0000000000000000  0.0000000000000006  0.0000000000000000  0.0000000000000000  0.0000000000000001  0.0000000000000000  0.0000000000000000  0.0000000000000001  0.0000000000000000  0.0000000000000000  0.0000000000000000  0.0000000000000000  0.0000000000000000  0.0000000000000000  0.0000000000000000  0.0000000000000000  0.0000186683433553  0.0000000000000000  0.0000000000000000  0.0016694587971684  0.0000000000000000  0.0000000000000000  0.0000000000000000  0.0000000000000000  0.0000000000000000  0.0000000000000000  0.0000000000000000  0.0000000000000000  0.0000000000000000  0.0000000000000000  0.0000000000000000  0.0000000000000000  0.0000000000000000  0.0000000000000000  0.0000000000000000  0.0000000000000000  0.0000000000000000  0.0000000000000000 -0.0000000307991362  0.0000000000000000  0.0000000000000000  0.0000000000000000  0.0000000000000000  0.9999999999999984
  0.0000000000000000  0.0000000000000000  0.0000000000000000  0.0000000000000000  0.0000000000000000  0.0000000000000000  0.0000000000000000  0.0000000000000000  0.0000000000000000  0.0000000000000000  0.0000000000000000  0.0000000000000000  0.0000000000000000  0.0000000000000000  0.0000000000000000  0.0000000000000000  0.0000000000000000  0.0000000000000000  0.0000000000000000  0.0000000000000000  0.0000000000000000  0.0000000000000000  0.0000000000000000  0.0000000000000000  0.0000000000000000  0.0000000000000000  0.0000000000000000  0.0000000000000000  0.0000000000000000  0.0000000000000000  0.0000000000000000  0.0000000000000000  0.0000000000000000  0.0000000000000000  0.0000000000000000  0.0000000000000000  0.0000000000000000  0.0000000000000000  0.0000000000000000  0.0000000000000000  0.0000000000000000  0.0000000000000000  0.0000000000000000  0.0000000000000000  0.0000000000000000  0.0000000000000000  0.0000000000000000  0.0000000000000000  0.0000000000000000  0.0000000000000000  0.0000000011589899  0.0000000000000000  0.0000000000000000  0.0000000000000000  0.0000000000000000  1.0000000000000002
  0.0000000000000000  0.0000000000000000  0.0000000000000000  0.0000000000000000  0.0000000000000000  0.0000000000000000  0.0000000000000000 -0.0000000000000000  0.0000000000000000  0.0000000000000000  0.0000000000000000  0.0000000000000000  0.0000000000000000 -0.0000000000000001  0.0000000000000000  0.0000000000000000 -0.0000000000000001  0.0000000000000000  0.0000000000000000  0.0000000000000000  0.0000000000000000  0.0000000000000000  0.0000000000000000  0.0000000000000000  0.0000000000000000  0.0000000000000000  0.0000000000000000  0.0000000000000000  0.0000000000000000  0.0000000000000000  0.0000000000000000  0.0000000000000000  0.0000000000000000  0.0000000000000000  0.0000000000000000  0.0000000000000000  0.0000000000000000  0.0000000000000000  0.0000000000000000  0.0000000000000000  0.0000000000000000  0.0000000000000000  0.0000000000000000  0.0000000000000000  0.0000000000000000  0.0000000000000000  0.0000000000000000  0.0000000000000000  0.0000000000000000  0.0000000000000000  0.0000000000000000  0.0000000011589899 -0.0000000000000001  0.0000000000000000  0.0000000000000000  0.0000000000000000  0.9999999999999994
  0.0000000000000000  0.0000000000000000  0.0000000000000000  0.0000000000000000  0.0000000000000000  0.0000000000000000  0.0000000000000000  0.0000000000000000 -0.0000000000000001  0.0000000000000000  0.0000000000000000 -0.0000000000000003  0.0000000000000000  0.0000000000000000 -0.0000000000000001  0.0000000000000000  0.0000000000000000 -0.0000000000000001  0.0000000000000000  0.0000000000000000  0.0000000000000000  0.0000000000000000  0.0000000000000000  0.0000000000000000  0.0000000000000000  0.0000000000000000 -0.0000000000000000  0.0000000000000000  0.0000000000000000 -0.0000000000000000  0.0000000000000000  0.0000000000000000  0.0000000000000000  0.0000000000000000  0.0000000000000000  0.0000000000000000  0.0000000000000000  0.0000000000000000  0.0000000000000000  0.0000000000000000  0.0000000000000000  0.0000000000000000  0.0000000000000000  0.0000000000000000  0.0000000000000000  0.0000000000000000  0.0000000000000000  0.0000000000000000  0.0000000000000000  0.0000000000000000  0.0000000000000000  0.0000000000000000  0.0000000000000000 -0.0000000000000004  0.0000000000000000  0.0000000000000000  0.0000000000000000  0.9999999999999994
  0.0000000000000000  0.0000000000000000  0.0000000000000000  0.0000000000000000  0.0000000000000000  0.0000000000000000  0.0000000000000000  0.0000000000000000  0.0000000000000000 -0.0000000000000001  0.0000000000000000  0.0000000000000000 -0.0000000000000002  0.0000000000000000  0.0000000000000000 -0.0000000000000001  0.0000000000000000  0.0000000000000000 -0.0000000000000001  0.0000000000000000  0.0000000000000000  0.0000000000000000  0.0000000000000000  0.0000000000000000  0.0000000000000000  0.0000000000000000  0.0000000000000000 -0.0000000000000000  0.0000000000000000  0.0000000000000000 -0.0000000000000000  0.0000000000000000  0.0000000000000000  0.0000000000000000  0.0000000000000000  0.0000000000000000  0.0000000000000000  0.0000000000000000  0.0000000000000000  0.0000000000000000  0.0000000000000000  0.0000000000000000  0.0000000000000000  0.0000000000000000  0.0000000000000000  0.0000000000000000  0.0000000000000000  0.0000000000000000  0.0000000000000000  0.0000000000000000  0.0000000000000000  0.0000000000000000  0.0000000000000000  0.0000000000000000 -0.0000000000000004  0.0000000000000000  0.0000000000000000  0.0000000000000000  1.0000000000000000
  0.0000000000000000 -0.0000000335441032 -0.0001725255862731 -0.0013890383984876  0.0000000000000000  0.0000000000000005  0.0000000000000000  0.0000000000000000  0.0000000000000000  0.0000000000000000  0.0000000000000000  0.0000000000000000  0.0000000000000000  0.0000000000000000  0.0000000000000000  0.0000000000000000 -0.0001575232925022  0.0000000000000000  0.0000000000000000 -0.0032514231446320  0.0000000000000000  0.0000000000000000  0.0000000000000002  0.0000000000000000  0.0000000000000000  0.0000000000000003  0.0000000000000000  0.0000000000000000 -0.0000000000000001  0.0000000000000000  0.0000000000000000  0.0000000000000001  0.0000000000000000  0.0000000000000000  0.0000000000000000  0.0000000000000000  0.0000000000000000 -0.0000002906759345  0.0000000000000000  0.0000000000000000  0.0000000000000000  0.0000000000000000  0.0000000000000011  0.0000000000000000  0.0000000000000000  0.0000000000000000  0.0000000000000000  0.0000000000000000  0.0000000000000000  0.0000000000000000  0.0000000000000000  0.0000000000000000  0.0000000000000000  0.0000000000000000  0.0000000000000000  0.0000000000000000  0.0000000000000000  0.0000000000000000  0.0000000000000000  1.0000000000000027
  0.0000000000000000  0.0000000000000000  0.0000000000000000  0.0000000000000000  0.0000000000000000  0.0000000000000000  0.0000000000000000  0.0000000000000000  0.0000000000000000  0.0000000000000000  0.0000000000000000  0.0000000000000000  0.0000000000000000  0.0000000000000000  0.0000186683433553  0.0000000000000000  0.0000000000000000  0.0016694587971684  0.0000000000000000  0.0000000000000000 -0.0000000000000004  0.0000000000000000  0.0000000000000000  0.0000000000000004  0.0000000000000000  0.0000000000000000  0.0000000000000000  0.0000000000000000  0.0000000000000000  0.0000000000000001  0.0000000000000000  0.0000000000000000  0.0000000000000000  0.0000000000000000  0.0000000000000000  0.0000000000000000  0.0000000000000000  0.0000000000000000  0.0000000307991362  0.0000000000000000  0.0000000000000000  0.0000000000000000  0.0000000000000000  0.0000000000000000  0.0000000000000000  0.0000000000000000  0.0000000000000000  0.0000000000000000  0.0000000000000000  0.0000000000000000  0.0000000000000000  0.0000000000000000  0.0000000000000000  0.0000000000000000  0.0000000000000000  0.0000000000000000  0.0000000000000000  0.0000000000000000  0.0000000000000000  0.0000000000000000  0.9999999999999982
  0.0000000000000000  0.0000000000000000  0.0000000000000000  0.0000000000000000  0.0000000000000000  0.0000000000000000  0.0000000000000000  0.0000000000000000  0.0000000000000000  0.0000000000000000  0.0000000000000000  0.0000000000000000  0.0000000000000000  0.0000000000000000  0.0000000000000000  0.0000186683433553  0.0000000000000000  0.0000000000000000  0.0016694587971684  0.0000000000000000  0.0000000000000000 -0.0000000000000004  0.0000000000000000  0.0000000000000000  0.0000000000000006  0.0000000000000000  0.0000000000000000  0.0000000000000001  0.0000000000000000  0.0000000000000000  0.0000000000000001  0.0000000000000000  0.0000000000000000  0.0000000000000000  0.0000000000000000  0.0000000000000000  0.0000000000000000  0.0000000000000000  0.0000000000000000  0.0000000307991362  0.0000000000000000  0.0000000000000000  0.0000000000000000  0.0000000000000000  0.0000000000000000  0.0000000000000000  0.0000000000000000  0.0000000000000000  0.0000000000000000  0.0000000000000000  0.0000000000000000  0.0000000000000000  0.0000000000000000  0.0000000000000000  0.0000000000000000  0.0000000000000000  0.0000000000000000  0.0000000000000000  0.0000000000000000  0.0000000000000000  0.0000000000000000  0.9999999999999984
  0.0000000000000000  0.0000000000000000  0.0000000000000000  0.0000000000000000  0.0000000000000000  0.0000000000000000  0.0000000000000000  0.0000000000000000  0.0000000000000000  0.0000000000000000  0.0000000000000000  0.0000000000000000  0.0000000000000000  0.0000000000000000  0.0000000000000000  0.0000000000000000  0.0000000000000000  0.0000000000000000  0.0000000000000000  0.0000000000000000  0.0000000000000000  0.0000000000000000  0.0000000000000000  0.0000000000000000  0.0000000000000000  0.0000000000000000  0.0000000000000000  0.0000000000000000  0.0000000000000000  0.0000000000000000  0.0000000000000000  0.0000000000000000  0.0000000000000000  0.0000000000000000  0.0000000000000000  0.0000000000000000  0.0000000000000000  0.0000000000000000  0.0000000000000000  0.0000000000000000 -0.0000000011589899  0.0000000000000000  0.0000000000000000  0.0000000000000000  0.0000000000000000  0.0000000000000000  0.0000000000000000  0.0000000000000000  0.0000000000000000  0.0000000000000000  0.0000000000000000  0.0000000000000000  0.0000000000000000  0.0000000000000000  0.0000000000000000  0.0000000000000000  0.0000000000000000  0.0000000000000000  0.0000000000000000  0.0000000000000000  0.0000000000000000  0.0000000000000000  1.0000000000000002
  0.0000000000000000  0.0000000000000000  0.0000000000000000  0.0000000000000000  0.0000000000000000  0.0000000000000000  0.0000000000000000  0.0000000000000000  0.0000000000000000  0.0000000000000000  0.0000000000000000  0.0000000000000000  0.0000000000000000  0.0000000000000000  0.0000000000000000  0.0000000000000000  0.0000000000000000  0.0000000000000000  0.0000000000000000  0.0000000000000000  0.0000000000000000  0.0000000000000000  0.0000000000000000  0.0000000000000000  0.0000000000000000 -0.0000000000000001  0.0000000000000000  0.0000000000000000 -0.0000000000000001  0.0000000000000000  0.0000000000000000  0.0000000000000000  0.0000000000000000  0.0000000000000000  0.0000000000000000  0.0000000000000000  0.0000000000000000  0.0000000000000000  0.0000000000000000  0.0000000000000000  0.0000000000000000 -0.0000000011589899  0.0000000000000000  0.0000000000000000  0.0000000000000000  0.0000000000000000  0.0000000000000000  0.0000000000000000  0.0000000000000000  0.0000000000000000  0.0000000000000000  0.0000000000000000  0.0000000000000000  0.0000000000000000  0.0000000000000000  0.0000000000000000  0.0000000000000000  0.0000000000000000  0.0000000000000000 -0.0000000000000001  0.0000000000000000  0.0000000000000000  0.0000000000000000  0.9999999999999994
  0.0000000000000000  0.0000000000000000  0.0000000000000000  0.0000000000000000  0.0000000000000000  0.0000000000000000  0.0000000000000000  0.0000000000000000  0.0000000000000000  0.0000000000000000  0.0000000000000000  0.0000000000000000  0.0000000000000000  0.0000000000000000 -0.0000000000000000  0.0000000000000000  0.0000000000000000 -0.0000000000000000  0.0000000000000000  0.0000000000000000 -0.0000000000000001  0.0000000000000000  0.0000000000000000 -0.0000000000000003  0.0000000000000000  0.0000000000000000 -0.0000000000000001  0.0000000000000000  0.0000000000000000 -0.0000000000000001  0.0000000000000000  0.0000000000000000  0.0000000000000000  0.0000000000000000  0.0000000000000000  0.0000000000000000  0.0000000000000000  0.0000000000000000 -0.0000000000000000  0.0000000000000000  0.0000000000000000  0.0000000000000000  0.0000000000000000  0.0000000000000000  0.0000000000000000  0.0000000000000000  0.0000000000000000  0.0000000000000000  0.0000000000000000  0.0000000000000000  0.0000000000000000  0.0000000000000000  0.0000000000000000  0.0000000000000000  0.0000000000000000  0.0000000000000000  0.0000000000000000  0.0000000000000000  0.0000000000000000  0.0000000000000000 -0.0000000000000004  0.0000000000000000  0.0000000000000000  0.0000000000000000  0.9999999999999994
  0.0000000000000000  0.0000000000000000  0.0000000000000000  0.0000000000000000  0.0000000000000000  0.0000000000000000  0.0000000000000000  0.0000000000000000  0.0000000000000000  0.0000000000000000  0.0000000000000000  0.0000000000000000  0.0000000000000000  0.0000000000000000  0.0000000000000000 -0.0000000000000000  0.0000000000000000  0.0000000000000000 -0.0000000000000000  0.0000000000000000  0.0000000000000000 -0.0000000000000001  0.0000000000000000  0.0000000000000000 -0.0000000000000002  0.0000000000000000  0.0000000000000000 -0.0000000000000001  0.0000000000000000  0.0000000000000000 -0.0000000000000001  0.0000000000000000  0.0000000000000000  0.0000000000000000  0.0000000000000000  0.0000000000000000  0.0000000000000000  0.0000000000000000  0.0000000000000000 -0.0000000000000000  0.0000000000000000  0.0000000000000000  0.0000000000000000  0.0000000000000000  0.0000000000000000  0.0000000000000000  0.0000000000000000  0.0000000000000000  0.0000000000000000  0.0000000000000000  0.0000000000000000  0.0000000000000000  0.0000000000000000  0.0000000000000000  0.0000000000000000  0.0000000000000000  0.0000000000000000  0.0000000000000000  0.0000000000000000  0.0000000000000000  0.0000000000000000 -0.0000000000000004  0.0000000000000000  0.0000000000000000  0.0000000000000000  1.0000000000000000
 END


 total number of electrons =     0.99999999999999

 => charge of molecule     =     1.00000000000001




------------------------------------------------------------------------

   Population Analysis Based On Occupation Numbers (PABOON)

------------------------------------------------------------------------

 
 CHOICE OF MAOs:
MAOs are selected due to their eigenvalues; determination of their number: 
 automatic; mixing options fix and eigenvalue thr=0.1
 
 ... and this is your MAO selection:
 (atoms for which the two selection methods (fixed/threshold) yield
 different numbers of MAOs are marked by an *)
 
   atom   nr. of MAOs      selection criterion
    1 h          1               eig
    2 h          1               eig
 


************************************************************************
*                                                                      *
*                     unassigned charge =  -0.000000                   *
*                                                                      *
************************************************************************



************************************************************************
*                                                                      *
*                       hypervalent contributions                      *
*                                                                      *
************************************************************************

              h    1           -0.000000
              h    2           -0.000000


************************************************************************
*                                                                      *
*                        shared electron numbers                       *
*                                                                      *
************************************************************************



 TWO center shared electron numbers ge 0.1000E-01 :

  shared electron number for the pair       1 h  -   2 h   =     0.0349


************************************************************************
*                                                                      *
*              atomic charges with multicenter corrections             *
*              AS RESULTING FROM 2-CENTER SEN CONTRIBUTIONS            *
*                                                                      *
************************************************************************

                        -------------------------
                           atom   |     charge   
                        -------------------------
                            1 h   |    0.5000
                            2 h   |    0.5000
                        -------------------------


************************************************************************
*                                                                      *
*              atomic charges with multicenter corrections             *
*                                                                      *
************************************************************************

                        -------------------------
                           atom   |     charge   
                        -------------------------
                            1 h   |    0.5000
                            2 h   |    0.5000
                        -------------------------

 
 moments (from total density versus population analysis)
 <charge> =             1.000000            1.000000
 <xx  >   =            -1.047578            0.000000
 <yy  >   =            -1.047578            0.000000
 <zz  >   =            12.246281           12.250000
 <xy  >   =             0.000000            0.000000
 <xz  >   =            -0.000000            0.000000
 <yz  >   =            -0.000000            0.000000

 
 
 ==============================================================================
                      CALCULATION OF QUANTITIES ON GRID
 ==============================================================================
 
 
 output format: v1,v2,f(v1,v2)
 output format: v1,v2,f(v1,v2)
 Reasonable settings for gnuplot contour plots are in file 'gnuset'.
 Call gnuplot and use it by typing: 'load "gnuset"'
 ... and then follow further instructions ...
 
 
 quantities to be calculated are 
 density                     file: ..d.vec
 
 calculation at a plane of  500*  201 points
 
 origin at            0.00000        0.00000        0.00000
 
 normalised grid vectors:
                        x              y              z
  1. vector:         0.00000        0.00000        1.00000
  2. vector:         0.00000        1.00000        0.00000
 
                     minimum       increment       maximum
  1. vector:        -8.00000        0.03206        8.00000
  2. vector:        -5.00000        0.05000        5.00000
 
 
 ==============================================================================
 


    ------------------------------------------------------------------------
         total  cpu-time :   1.86 seconds
         total wall-time :   2.40 seconds
    ------------------------------------------------------------------------


   ****  dscf : all done  ****


    2015-03-28 18:37:11.458 

