 operating system is UNIX !
 hostname is         gplogin1.local

 dscf (gplogin1.local) : TURBOMOLE V6.6( ) 18 Mar 2015 at 17:33:10
 Copyright (C) 2015 TURBOMOLE GmbH, Karlsruhe


    2015-03-28 18:37:03.909 



                             d s c f - program

                   idea & directorship : reinhart ahlrichs
                   program development : marco haeser
                                         michael baer
                           dft version : oliver treutler


                          quantum chemistry group
                          universitaet  karlsruhe
                                  germany




                          References             
                                                 
          TURBOMOLE:                             
              R. Ahlrichs, M. Baer, M. Haeser, H. Horn, and
              C. Koelmel
              Electronic structure calculations on workstation
              computers: the program system TURBOMOLE
              Chem. Phys. Lett. 162: 165 (1989)
          Density Functional:                              
              O. Treutler and R. Ahlrichs                      
              Efficient Molecular Numerical Integration Schemes
              J. Chem. Phys. 102: 346 (1995)                   
          Parallel Version:                                
              Performance of parallel TURBOMOLE for Density    
              Functional Calculations                          
              M. v. Arnim and R. Ahlrichs                      
              J. Comp. Chem. 19: 1746 (1998)                   
                                         



 UHF mode switched on !


              +--------------------------------------------------+
              | Atomic coordinate, charge and isotop information |
              +--------------------------------------------------+

                    atomic coordinates            atom    charge  isotop
          0.00000000    0.00000000   -2.50000000    h      1.000     0
          0.00000000    0.00000000    2.50000000    h      1.000     0
 
       center of nuclear mass  :    0.00000000    0.00000000    0.00000000
       center of nuclear charge:    0.00000000    0.00000000    0.00000000

   *************************************************************************
   h-h/5.0                                                                  
   *************************************************************************



              +--------------------------------------------------+
              |               basis set information              |
              +--------------------------------------------------+

              we will work with the 1s 3p 5d 7f 9g ... basis set
              ...i.e. with spherical basis functions...

   type   atoms  prim   cont   basis
   ---------------------------------------------------------------------------
    h        2     36     33   def2-QZVPPD   [4s4p2d1f|7s4p2d1f]
   ---------------------------------------------------------------------------
   total:    2     72     66
   ---------------------------------------------------------------------------

   total number of primitive shells          :   14
   total number of contracted shells         :   22
   total number of cartesian basis functions :   76
   total number of SCF-basis functions       :   66


 integral neglect threshold       :  0.44E-11
 integral storage threshold THIZE :  0.10E-04
 integral storage threshold THIME :         5


 symmetry group of the molecule :   c1 

 the group has the following generators :
   c1(z)

    1 symmetry operations found

 there are 1 real representations :   a   

 maximum number of shells which are related by symmetry :  1

  missing beta occupation number declaration 

    mo occupation :
   irrep   mo's   occupied
    a       66        1
 
 number of basis functions   :           66
 number of occupied orbitals :            1
 

          ------------------------
          nuclear repulsion energy  :  0.200000000000    
          ------------------------

 
          -----------------
          -S,T+V- integrals
          -----------------

 1e-integrals will be neglected if expon. factor < 0.439732E-12
 
   Difference densities algorithm switched on.
   The maximal number of linear combinations of
   difference densities is          20 .

 automatic virtual orbital shift switched on 
      shift if e(lumo)-e(homo) < 0.10000000    


 DIIS switched on: error vector is FDS-SDF
 Max. Iterations for DIIS is     :   5
 DIIS matrix (see manual) 
    Scaling factor of diagonals  :  1.200
    threshold for scaling factor :  0.000

 scf convergence criterion : increment of total energy < .1000000D-07
                  and increment of one-electron energy < .1000000D-04


 <geterg> : there is no data group $energy 

  MOs are in ASCII format !


 reading orbital data $uhfmo_alpha  from file alpha . 

 orbital characterization : expanded
 

 reading orbital data $uhfmo_beta  from file beta . 

 orbital characterization : expanded
 
 mo provided and orthogonalized by Cholesky decomposition
 mo provided and orthogonalized by Cholesky decomposition

 DSCF restart information will be dumped onto file alpha

 
                                              current damping :  1.000
 ITERATION  ENERGY          1e-ENERGY        2e-ENERGY     NORM[dD(SAO)]  TOL
   1  -.51951533840450    -.71951533840    0.97963304135E-130.000D+00 0.439D-11
          max. resid. norm for Fia-block=  4.844D-02 for orbital      1a    alpha
          max. resid. fock norm         =  3.154D+00 for orbital     60a    beta 
          Delta Eig. =    79.5735623683 eV 
 
                                              current damping :  0.950
 ITERATION  ENERGY          1e-ENERGY        2e-ENERGY     NORM[dD(SAO)]  TOL
   2  -.52077372388781    -.72077372389    0.45371380264E-110.108D-01 0.278D-11
          Norm of current diis error: 0.11125    
          max. resid. norm for Fia-block=  4.278D-02 for orbital      1a    alpha
          max. resid. fock norm         =  7.094D-02 for orbital      1a    beta 
          Delta Eig. =    40.8112509217 eV 
 
                                              current damping :  0.800
 ITERATION  ENERGY          1e-ENERGY        2e-ENERGY     NORM[dD(SAO)]  TOL
   3  -.52204406756374    -.72204406757    0.83077641988E-110.287D-02 0.179D-11
          Norm of current diis error: 0.86101E-01
          max. resid. norm for Fia-block=  3.896D-02 for orbital      1a    alpha
          max. resid. fock norm         =  5.130D-02 for orbital      1a    beta 
          Delta Eig. =    21.5404877419 eV 
 
                                              current damping :  0.650
 ITERATION  ENERGY          1e-ENERGY        2e-ENERGY     NORM[dD(SAO)]  TOL
   4  -.52318415012850    -.72318415014    0.13321437703E-100.861D-03 0.133D-11
          Norm of current diis error: 0.55861E-01
          max. resid. norm for Fia-block=  2.891D-02 for orbital      1a    alpha
          max. resid. fock norm         =  3.157D-02 for orbital      1a    beta 
          Delta Eig. =    10.4351417074 eV 
 
                                              current damping :  0.500
 ITERATION  ENERGY          1e-ENERGY        2e-ENERGY     NORM[dD(SAO)]  TOL
   5  -.52382086022049    -.72382086024    0.19287002551E-100.309D-03 0.111D-11
          Norm of current diis error: 0.28285E-01
          max. resid. norm for Fia-block=  1.545D-02 for orbital      1a    alpha
          max. resid. fock norm         =  1.545D-02 for orbital      1a    alpha
 mo-orthogonalization: Cholesky decomposition
          Delta Eig. =     4.5098232508 eV 
 
                                              current damping :  0.350
 ITERATION  ENERGY          1e-ENERGY        2e-ENERGY     NORM[dD(SAO)]  TOL
   6  -.52401310901888    -.72401310904    0.23977167474E-100.116D-03 0.101D-11
          Norm of current diis error: 0.11170E-01
          max. resid. norm for Fia-block=  6.226D-03 for orbital      1a    alpha
          max. resid. fock norm         =  6.226D-03 for orbital      1a    alpha
          Delta Eig. =     1.6610381896 eV 
 
                                              current damping :  0.200
 ITERATION  ENERGY          1e-ENERGY        2e-ENERGY     NORM[dD(SAO)]  TOL
   7  -.52404685854849    -.72404685857    0.26463504998E-100.506D-04 0.963D-12
          Norm of current diis error: 0.34185E-02
          max. resid. norm for Fia-block=  1.941D-03 for orbital      1a    alpha
          max. resid. fock norm         =  1.941D-03 for orbital      1a    alpha
          Delta Eig. =     0.4791344347 eV 
 
                                              current damping :  0.100
 ITERATION  ENERGY          1e-ENERGY        2e-ENERGY     NORM[dD(SAO)]  TOL
   8  -.52405041397502    -.72405041401    0.31590782074E-100.406D-05 0.940D-12
          Norm of current diis error: 0.75547E-03
          max. resid. norm for Fia-block=  4.438D-04 for orbital      1a    alpha
          max. resid. fock norm         =  4.438D-04 for orbital      1a    alpha
          Delta Eig. =     0.0848216909 eV 
 
                                              current damping :  0.100
 ITERATION  ENERGY          1e-ENERGY        2e-ENERGY     NORM[dD(SAO)]  TOL
   9  -.52405061756258    -.72405061760    0.34469246901E-100.198D-05 0.929D-12
          Norm of current diis error: 0.14048E-03
          max. resid. norm for Fia-block=  8.978D-05 for orbital      1a    alpha
          max. resid. fock norm         =  8.978D-05 for orbital      1a    alpha
          Delta Eig. =     0.0067830969 eV 

 ENERGY CONVERGED !

 
                                              current damping :  0.150
 ITERATION  ENERGY          1e-ENERGY        2e-ENERGY     NORM[dD(SAO)]  TOL
  10  -.52405062657959    -.72405062659    0.15022809385E-100.225D-01 0.125D-11
          max. resid. norm for Fia-block=  1.867D-05 for orbital      1a    alpha
          max. resid. fock norm         =  1.867D-05 for orbital      1a    alpha
 Density matrix in CAO:
 
 Print from pmat
 
 Lower triangle of alpha RDM in AO basis:
  0.0080823742455926
  0.0170597545872373  0.0360086303520860
  0.0303019297474079  0.0639593601214862  0.1136060912939716
  0.0116997890572798  0.0246951606019084  0.0438641140957447  0.0169362442056538
  0.0080823742455925  0.0170597545872370  0.0303019297474073  0.0116997890572796  0.0080823742455924
  0.0170597545872366  0.0360086303520843  0.0639593601214832  0.0246951606019072  0.0170597545872362  0.0360086303520827
  0.0303019297474067  0.0639593601214835  0.1136060912939669  0.0438641140957429  0.0303019297474061  0.0639593601214806  0.1136060912939623
  0.0116997890572796  0.0246951606019079  0.0438641140957439  0.0169362442056535  0.0116997890572794  0.0246951606019068  0.0438641140957421  0.0169362442056532
  0.0000000000000000  0.0000000000000000  0.0000000000000001  0.0000000000000000  0.0000000000000000  0.0000000000000000  0.0000000000000001  0.0000000000000000  0.0000000000000000
 -0.0000000000000000 -0.0000000000000001 -0.0000000000000001 -0.0000000000000000 -0.0000000000000000 -0.0000000000000001 -0.0000000000000001 -0.0000000000000000 -0.0000000000000000  0.0000000000000000
  0.0001991359293342  0.0004203232838167  0.0007465879155696  0.0002882628663485  0.0001991359293342  0.0004203232838167  0.0007465879155696  0.0002882628663485  0.0000000000000000 -0.0000000000000000  0.0000049063699783
 -0.0000000000000000 -0.0000000000000001 -0.0000000000000002 -0.0000000000000001 -0.0000000000000000 -0.0000000000000001 -0.0000000000000002 -0.0000000000000001 -0.0000000000000000  0.0000000000000000 -0.0000000000000000  0.0000000000000000
  0.0000000000000000  0.0000000000000001  0.0000000000000001  0.0000000000000001  0.0000000000000000  0.0000000000000001  0.0000000000000001  0.0000000000000001  0.0000000000000000 -0.0000000000000000  0.0000000000000000 -0.0000000000000000  0.0000000000000000
 -0.0003106691014275 -0.0006557403143119 -0.0011647410773240 -0.0004497147549557 -0.0003106691014275 -0.0006557403143119 -0.0011647410773240 -0.0004497147549557 -0.0000000000000000  0.0000000000000000 -0.0000076543572901  0.0000000000000000 -0.0000000000000000  0.0000119414528020
  0.0000000000000001  0.0000000000000001  0.0000000000000002  0.0000000000000001  0.0000000000000001  0.0000000000000001  0.0000000000000002  0.0000000000000001  0.0000000000000000 -0.0000000000000000  0.0000000000000000 -0.0000000000000000  0.0000000000000000 -0.0000000000000000  0.0000000000000000
 -0.0000000000000000 -0.0000000000000001 -0.0000000000000001 -0.0000000000000000 -0.0000000000000000 -0.0000000000000001 -0.0000000000000001 -0.0000000000000000 -0.0000000000000000  0.0000000000000000 -0.0000000000000000  0.0000000000000000 -0.0000000000000000  0.0000000000000000 -0.0000000000000000  0.0000000000000000
  0.0039660825234519  0.0083713513463839  0.0148693874282791  0.0057411754885583  0.0039660825234518  0.0083713513463835  0.0148693874282784  0.0057411754885582  0.0000000000000000 -0.0000000000000000  0.0000977175153148 -0.0000000000000000  0.0000000000000000 -0.0001524476912734  0.0000000000000000 -0.0000000000000000  0.0019461868635207
  0.0000000000000000  0.0000000000000001  0.0000000000000001  0.0000000000000000  0.0000000000000000  0.0000000000000001  0.0000000000000001  0.0000000000000000  0.0000000000000000 -0.0000000000000000  0.0000000000000000 -0.0000000000000000  0.0000000000000000 -0.0000000000000000  0.0000000000000000 -0.0000000000000000  0.0000000000000000  0.0000000000000000
  0.0000000000000000  0.0000000000000001  0.0000000000000001  0.0000000000000000  0.0000000000000000  0.0000000000000001  0.0000000000000001  0.0000000000000000  0.0000000000000000 -0.0000000000000000  0.0000000000000000 -0.0000000000000000  0.0000000000000000 -0.0000000000000000  0.0000000000000000 -0.0000000000000000  0.0000000000000000  0.0000000000000000  0.0000000000000000
  0.0024572411810995  0.0051865862972220  0.0092125342603032  0.0035570245336514  0.0024572411810995  0.0051865862972218  0.0092125342603029  0.0035570245336513  0.0000000000000000 -0.0000000000000000  0.0000605422356510 -0.0000000000000000  0.0000000000000000 -0.0000944510717428  0.0000000000000000 -0.0000000000000000  0.0012057869393488  0.0000000000000000  0.0000000000000000  0.0007470619447477
  0.0000000000000000  0.0000000000000000  0.0000000000000000  0.0000000000000000  0.0000000000000000  0.0000000000000000  0.0000000000000000  0.0000000000000000  0.0000000000000000 -0.0000000000000000  0.0000000000000000 -0.0000000000000000  0.0000000000000000 -0.0000000000000000  0.0000000000000000 -0.0000000000000000  0.0000000000000000  0.0000000000000000  0.0000000000000000  0.0000000000000000  0.0000000000000000
 -0.0000000000000001 -0.0000000000000001 -0.0000000000000002 -0.0000000000000001 -0.0000000000000001 -0.0000000000000001 -0.0000000000000002 -0.0000000000000001 -0.0000000000000000  0.0000000000000000 -0.0000000000000000  0.0000000000000000 -0.0000000000000000  0.0000000000000000 -0.0000000000000000  0.0000000000000000 -0.0000000000000000 -0.0000000000000000 -0.0000000000000000 -0.0000000000000000 -0.0000000000000000  0.0000000000000000
 -0.0001991359293342 -0.0004203232838166 -0.0007465879155694 -0.0002882628663484 -0.0001991359293342 -0.0004203232838166 -0.0007465879155694 -0.0002882628663484 -0.0000000000000000  0.0000000000000000 -0.0000049063699783  0.0000000000000000 -0.0000000000000000  0.0000076543572901 -0.0000000000000000  0.0000000000000000 -0.0000977175153148 -0.0000000000000000 -0.0000000000000000 -0.0000605422356510 -0.0000000000000000  0.0000000000000000  0.0000049063699783
 -0.0000000000000000 -0.0000000000000000 -0.0000000000000000 -0.0000000000000000 -0.0000000000000000 -0.0000000000000000 -0.0000000000000000 -0.0000000000000000 -0.0000000000000000  0.0000000000000000 -0.0000000000000000  0.0000000000000000 -0.0000000000000000  0.0000000000000000 -0.0000000000000000  0.0000000000000000 -0.0000000000000000 -0.0000000000000000 -0.0000000000000000 -0.0000000000000000 -0.0000000000000000  0.0000000000000000  0.0000000000000000  0.0000000000000000
  0.0000000000000000  0.0000000000000001  0.0000000000000002  0.0000000000000001  0.0000000000000000  0.0000000000000001  0.0000000000000002  0.0000000000000001  0.0000000000000000 -0.0000000000000000  0.0000000000000000 -0.0000000000000000  0.0000000000000000 -0.0000000000000000  0.0000000000000000 -0.0000000000000000  0.0000000000000000  0.0000000000000000  0.0000000000000000  0.0000000000000000  0.0000000000000000 -0.0000000000000000 -0.0000000000000000 -0.0000000000000000  0.0000000000000000
  0.0003106691014275  0.0006557403143118  0.0011647410773239  0.0004497147549557  0.0003106691014275  0.0006557403143118  0.0011647410773239  0.0004497147549556  0.0000000000000000 -0.0000000000000000  0.0000076543572901 -0.0000000000000000  0.0000000000000000 -0.0000119414528020  0.0000000000000000 -0.0000000000000000  0.0001524476912734  0.0000000000000000  0.0000000000000000  0.0000944510717428  0.0000000000000000 -0.0000000000000000 -0.0000076543572901 -0.0000000000000000  0.0000000000000000  0.0000119414528020
  0.0000000000000000  0.0000000000000000  0.0000000000000001  0.0000000000000000  0.0000000000000000  0.0000000000000000  0.0000000000000001  0.0000000000000000  0.0000000000000000 -0.0000000000000000  0.0000000000000000 -0.0000000000000000  0.0000000000000000 -0.0000000000000000  0.0000000000000000 -0.0000000000000000  0.0000000000000000  0.0000000000000000  0.0000000000000000  0.0000000000000000  0.0000000000000000 -0.0000000000000000 -0.0000000000000000 -0.0000000000000000  0.0000000000000000  0.0000000000000000  0.0000000000000000
 -0.0000000000000000 -0.0000000000000001 -0.0000000000000001 -0.0000000000000000 -0.0000000000000000 -0.0000000000000001 -0.0000000000000001 -0.0000000000000000 -0.0000000000000000  0.0000000000000000 -0.0000000000000000  0.0000000000000000 -0.0000000000000000  0.0000000000000000 -0.0000000000000000  0.0000000000000000 -0.0000000000000000 -0.0000000000000000 -0.0000000000000000 -0.0000000000000000 -0.0000000000000000  0.0000000000000000  0.0000000000000000  0.0000000000000000 -0.0000000000000000 -0.0000000000000000 -0.0000000000000000  0.0000000000000000
 -0.0039660825234520 -0.0083713513463840 -0.0148693874282793 -0.0057411754885584 -0.0039660825234519 -0.0083713513463836 -0.0148693874282787 -0.0057411754885583 -0.0000000000000000  0.0000000000000000 -0.0000977175153148  0.0000000000000000 -0.0000000000000000  0.0001524476912734 -0.0000000000000000  0.0000000000000000 -0.0019461868635207 -0.0000000000000000 -0.0000000000000000 -0.0012057869393489 -0.0000000000000000  0.0000000000000000  0.0000977175153148  0.0000000000000000 -0.0000000000000000 -0.0001524476912734 -0.0000000000000000  0.0000000000000000  0.0019461868635208
 -0.0000000000000001 -0.0000000000000002 -0.0000000000000004 -0.0000000000000002 -0.0000000000000001 -0.0000000000000002 -0.0000000000000004 -0.0000000000000002 -0.0000000000000000  0.0000000000000000 -0.0000000000000000  0.0000000000000000 -0.0000000000000000  0.0000000000000000 -0.0000000000000000  0.0000000000000000 -0.0000000000000001 -0.0000000000000000 -0.0000000000000000 -0.0000000000000000 -0.0000000000000000  0.0000000000000000  0.0000000000000000  0.0000000000000000 -0.0000000000000000 -0.0000000000000000 -0.0000000000000000  0.0000000000000000  0.0000000000000001  0.0000000000000000
  0.0000000000000001  0.0000000000000002  0.0000000000000003  0.0000000000000001  0.0000000000000001  0.0000000000000002  0.0000000000000003  0.0000000000000001  0.0000000000000000 -0.0000000000000000  0.0000000000000000 -0.0000000000000000  0.0000000000000000 -0.0000000000000000  0.0000000000000000 -0.0000000000000000  0.0000000000000000  0.0000000000000000  0.0000000000000000  0.0000000000000000  0.0000000000000000 -0.0000000000000000 -0.0000000000000000 -0.0000000000000000  0.0000000000000000  0.0000000000000000  0.0000000000000000 -0.0000000000000000 -0.0000000000000000 -0.0000000000000000  0.0000000000000000
 -0.0024572411810993 -0.0051865862972215 -0.0092125342603023 -0.0035570245336510 -0.0024572411810992 -0.0051865862972212 -0.0092125342603019 -0.0035570245336510 -0.0000000000000000  0.0000000000000000 -0.0000605422356510  0.0000000000000000 -0.0000000000000000  0.0000944510717428 -0.0000000000000000  0.0000000000000000 -0.0012057869393487 -0.0000000000000000 -0.0000000000000000 -0.0007470619447476 -0.0000000000000000  0.0000000000000000  0.0000605422356510  0.0000000000000000 -0.0000000000000000 -0.0000944510717428 -0.0000000000000000  0.0000000000000000  0.0012057869393487  0.0000000000000000 -0.0000000000000000  0.0007470619447476
  0.0000314600090301  0.0000664037592245  0.0001179478893846  0.0000455405129988  0.0000314600090301  0.0000664037592245  0.0001179478893846  0.0000455405129988  0.0000000000000000 -0.0000000000000000  0.0000007751210158 -0.0000000000000000  0.0000000000000000 -0.0000012092551569  0.0000000000000000 -0.0000000000000000  0.0000154376657416  0.0000000000000000  0.0000000000000000  0.0000095646189347  0.0000000000000000 -0.0000000000000000 -0.0000007751210158 -0.0000000000000000  0.0000000000000000  0.0000012092551569  0.0000000000000000 -0.0000000000000000 -0.0000154376657416 -0.0000000000000000  0.0000000000000000 -0.0000095646189347  0.0000001224556223
  0.0000314600090301  0.0000664037592245  0.0001179478893846  0.0000455405129988  0.0000314600090301  0.0000664037592245  0.0001179478893846  0.0000455405129988  0.0000000000000000 -0.0000000000000000  0.0000007751210158 -0.0000000000000000  0.0000000000000000 -0.0000012092551569  0.0000000000000000 -0.0000000000000000  0.0000154376657416  0.0000000000000000  0.0000000000000000  0.0000095646189347  0.0000000000000000 -0.0000000000000000 -0.0000007751210158 -0.0000000000000000  0.0000000000000000  0.0000012092551569  0.0000000000000000 -0.0000000000000000 -0.0000154376657416 -0.0000000000000000  0.0000000000000000 -0.0000095646189347  0.0000001224556223  0.0000001224556223
 -0.0000629200180603 -0.0001328075184490 -0.0002358957787692 -0.0000910810259976 -0.0000629200180603 -0.0001328075184490 -0.0002358957787692 -0.0000910810259976 -0.0000000000000000  0.0000000000000000 -0.0000015502420315  0.0000000000000000 -0.0000000000000000  0.0000024185103138 -0.0000000000000000  0.0000000000000000 -0.0000308753314832 -0.0000000000000000 -0.0000000000000000 -0.0000191292378694 -0.0000000000000000  0.0000000000000000  0.0000015502420315  0.0000000000000000 -0.0000000000000000 -0.0000024185103138 -0.0000000000000000  0.0000000000000000  0.0000308753314832  0.0000000000000000 -0.0000000000000000  0.0000191292378694 -0.0000002449112447 -0.0000002449112447  0.0000004898224893
 -0.0000000000000000 -0.0000000000000000 -0.0000000000000000 -0.0000000000000000 -0.0000000000000000 -0.0000000000000000 -0.0000000000000000 -0.0000000000000000 -0.0000000000000000  0.0000000000000000 -0.0000000000000000  0.0000000000000000 -0.0000000000000000  0.0000000000000000 -0.0000000000000000  0.0000000000000000 -0.0000000000000000 -0.0000000000000000 -0.0000000000000000 -0.0000000000000000 -0.0000000000000000  0.0000000000000000  0.0000000000000000  0.0000000000000000 -0.0000000000000000 -0.0000000000000000 -0.0000000000000000  0.0000000000000000  0.0000000000000000  0.0000000000000000 -0.0000000000000000  0.0000000000000000 -0.0000000000000000 -0.0000000000000000  0.0000000000000000  0.0000000000000000
 -0.0000000000000000 -0.0000000000000000 -0.0000000000000000 -0.0000000000000000 -0.0000000000000000 -0.0000000000000000 -0.0000000000000000 -0.0000000000000000 -0.0000000000000000  0.0000000000000000 -0.0000000000000000  0.0000000000000000 -0.0000000000000000  0.0000000000000000 -0.0000000000000000  0.0000000000000000 -0.0000000000000000 -0.0000000000000000 -0.0000000000000000 -0.0000000000000000 -0.0000000000000000  0.0000000000000000  0.0000000000000000  0.0000000000000000 -0.0000000000000000 -0.0000000000000000 -0.0000000000000000  0.0000000000000000  0.0000000000000000  0.0000000000000000 -0.0000000000000000  0.0000000000000000 -0.0000000000000000 -0.0000000000000000  0.0000000000000000  0.0000000000000000  0.0000000000000000
  0.0000000000000000  0.0000000000000000  0.0000000000000000  0.0000000000000000  0.0000000000000000  0.0000000000000000  0.0000000000000000  0.0000000000000000  0.0000000000000000 -0.0000000000000000  0.0000000000000000 -0.0000000000000000  0.0000000000000000 -0.0000000000000000  0.0000000000000000 -0.0000000000000000  0.0000000000000000  0.0000000000000000  0.0000000000000000  0.0000000000000000  0.0000000000000000 -0.0000000000000000 -0.0000000000000000 -0.0000000000000000  0.0000000000000000  0.0000000000000000  0.0000000000000000 -0.0000000000000000 -0.0000000000000000 -0.0000000000000000  0.0000000000000000 -0.0000000000000000  0.0000000000000000  0.0000000000000000 -0.0000000000000000 -0.0000000000000000 -0.0000000000000000  0.0000000000000000
 -0.0001746691881189 -0.0003686804635266 -0.0006548587465251 -0.0002528455864206 -0.0001746691881189 -0.0003686804635266 -0.0006548587465251 -0.0002528455864206 -0.0000000000000000  0.0000000000000000 -0.0000043035511652  0.0000000000000000 -0.0000000000000000  0.0000067139083234 -0.0000000000000000  0.0000000000000000 -0.0000857114992865 -0.0000000000000000 -0.0000000000000000 -0.0000531037426718 -0.0000000000000000  0.0000000000000000  0.0000043035511652  0.0000000000000000 -0.0000000000000000 -0.0000067139083234 -0.0000000000000000  0.0000000000000000  0.0000857114992865  0.0000000000000000 -0.0000000000000000  0.0000531037426718 -0.0000006798861409 -0.0000006798861409  0.0000013597722819  0.0000000000000000  0.0000000000000000 -0.0000000000000000  0.0000037747973988
 -0.0001746691881189 -0.0003686804635266 -0.0006548587465252 -0.0002528455864206 -0.0001746691881189 -0.0003686804635266 -0.0006548587465251 -0.0002528455864206 -0.0000000000000000  0.0000000000000000 -0.0000043035511652  0.0000000000000000 -0.0000000000000000  0.0000067139083234 -0.0000000000000000  0.0000000000000000 -0.0000857114992865 -0.0000000000000000 -0.0000000000000000 -0.0000531037426718 -0.0000000000000000  0.0000000000000000  0.0000043035511652  0.0000000000000000 -0.0000000000000000 -0.0000067139083234 -0.0000000000000000  0.0000000000000000  0.0000857114992865  0.0000000000000000 -0.0000000000000000  0.0000531037426718 -0.0000006798861409 -0.0000006798861409  0.0000013597722819  0.0000000000000000  0.0000000000000000 -0.0000000000000000  0.0000037747973988  0.0000037747973988
  0.0003493383762378  0.0007373609270532  0.0013097174930503  0.0005056911728412  0.0003493383762378  0.0007373609270532  0.0013097174930502  0.0005056911728412  0.0000000000000000 -0.0000000000000000  0.0000086071023304 -0.0000000000000000  0.0000000000000000 -0.0000134278166467  0.0000000000000000 -0.0000000000000000  0.0001714229985729  0.0000000000000000  0.0000000000000000  0.0001062074853436  0.0000000000000000 -0.0000000000000000 -0.0000086071023304 -0.0000000000000000  0.0000000000000000  0.0000134278166467  0.0000000000000000 -0.0000000000000000 -0.0001714229985729 -0.0000000000000000  0.0000000000000000 -0.0001062074853436  0.0000013597722819  0.0000013597722819 -0.0000027195445638 -0.0000000000000000 -0.0000000000000000  0.0000000000000000 -0.0000075495947975 -0.0000075495947975  0.0000150991895951
  0.0000000000000000  0.0000000000000000  0.0000000000000000  0.0000000000000000  0.0000000000000000  0.0000000000000000  0.0000000000000000  0.0000000000000000  0.0000000000000000 -0.0000000000000000  0.0000000000000000 -0.0000000000000000  0.0000000000000000 -0.0000000000000000  0.0000000000000000 -0.0000000000000000  0.0000000000000000  0.0000000000000000  0.0000000000000000  0.0000000000000000  0.0000000000000000 -0.0000000000000000 -0.0000000000000000 -0.0000000000000000  0.0000000000000000  0.0000000000000000  0.0000000000000000 -0.0000000000000000 -0.0000000000000000 -0.0000000000000000  0.0000000000000000 -0.0000000000000000  0.0000000000000000  0.0000000000000000 -0.0000000000000000 -0.0000000000000000 -0.0000000000000000  0.0000000000000000 -0.0000000000000000 -0.0000000000000000  0.0000000000000000  0.0000000000000000
 -0.0000000000000000 -0.0000000000000000 -0.0000000000000001 -0.0000000000000000 -0.0000000000000000 -0.0000000000000000 -0.0000000000000001 -0.0000000000000000 -0.0000000000000000  0.0000000000000000 -0.0000000000000000  0.0000000000000000 -0.0000000000000000  0.0000000000000000 -0.0000000000000000  0.0000000000000000 -0.0000000000000000 -0.0000000000000000 -0.0000000000000000 -0.0000000000000000 -0.0000000000000000  0.0000000000000000  0.0000000000000000  0.0000000000000000 -0.0000000000000000 -0.0000000000000000 -0.0000000000000000  0.0000000000000000  0.0000000000000000  0.0000000000000000 -0.0000000000000000  0.0000000000000000 -0.0000000000000000 -0.0000000000000000  0.0000000000000000  0.0000000000000000  0.0000000000000000 -0.0000000000000000  0.0000000000000000  0.0000000000000000 -0.0000000000000000 -0.0000000000000000  0.0000000000000000
  0.0000000000000000  0.0000000000000001  0.0000000000000001  0.0000000000000000  0.0000000000000000  0.0000000000000001  0.0000000000000001  0.0000000000000000  0.0000000000000000 -0.0000000000000000  0.0000000000000000 -0.0000000000000000  0.0000000000000000 -0.0000000000000000  0.0000000000000000 -0.0000000000000000  0.0000000000000000  0.0000000000000000  0.0000000000000000  0.0000000000000000  0.0000000000000000 -0.0000000000000000 -0.0000000000000000 -0.0000000000000000  0.0000000000000000  0.0000000000000000  0.0000000000000000 -0.0000000000000000 -0.0000000000000000 -0.0000000000000000  0.0000000000000000 -0.0000000000000000  0.0000000000000000  0.0000000000000000 -0.0000000000000000 -0.0000000000000000 -0.0000000000000000  0.0000000000000000 -0.0000000000000000 -0.0000000000000000  0.0000000000000000  0.0000000000000000 -0.0000000000000000  0.0000000000000000
  0.0000314600090301  0.0000664037592245  0.0001179478893846  0.0000455405129988  0.0000314600090301  0.0000664037592245  0.0001179478893846  0.0000455405129988  0.0000000000000000 -0.0000000000000000  0.0000007751210158 -0.0000000000000000  0.0000000000000000 -0.0000012092551569  0.0000000000000000 -0.0000000000000000  0.0000154376657416  0.0000000000000000  0.0000000000000000  0.0000095646189347  0.0000000000000000 -0.0000000000000000 -0.0000007751210158 -0.0000000000000000  0.0000000000000000  0.0000012092551569  0.0000000000000000 -0.0000000000000000 -0.0000154376657416 -0.0000000000000000  0.0000000000000000 -0.0000095646189347  0.0000001224556223  0.0000001224556223 -0.0000002449112447 -0.0000000000000000 -0.0000000000000000  0.0000000000000000 -0.0000006798861409 -0.0000006798861409  0.0000013597722819  0.0000000000000000 -0.0000000000000000  0.0000000000000000  0.0000001224556223
  0.0000314600090301  0.0000664037592245  0.0001179478893846  0.0000455405129988  0.0000314600090301  0.0000664037592245  0.0001179478893846  0.0000455405129988  0.0000000000000000 -0.0000000000000000  0.0000007751210158 -0.0000000000000000  0.0000000000000000 -0.0000012092551569  0.0000000000000000 -0.0000000000000000  0.0000154376657416  0.0000000000000000  0.0000000000000000  0.0000095646189347  0.0000000000000000 -0.0000000000000000 -0.0000007751210158 -0.0000000000000000  0.0000000000000000  0.0000012092551569  0.0000000000000000 -0.0000000000000000 -0.0000154376657416 -0.0000000000000000  0.0000000000000000 -0.0000095646189347  0.0000001224556223  0.0000001224556223 -0.0000002449112447 -0.0000000000000000 -0.0000000000000000  0.0000000000000000 -0.0000006798861409 -0.0000006798861409  0.0000013597722819  0.0000000000000000 -0.0000000000000000  0.0000000000000000  0.0000001224556223  0.0000001224556223
 -0.0000629200180603 -0.0001328075184489 -0.0002358957787692 -0.0000910810259976 -0.0000629200180603 -0.0001328075184489 -0.0002358957787692 -0.0000910810259976 -0.0000000000000000  0.0000000000000000 -0.0000015502420315  0.0000000000000000 -0.0000000000000000  0.0000024185103138 -0.0000000000000000  0.0000000000000000 -0.0000308753314832 -0.0000000000000000 -0.0000000000000000 -0.0000191292378694 -0.0000000000000000  0.0000000000000000  0.0000015502420315  0.0000000000000000 -0.0000000000000000 -0.0000024185103138 -0.0000000000000000  0.0000000000000000  0.0000308753314832  0.0000000000000000 -0.0000000000000000  0.0000191292378694 -0.0000002449112447 -0.0000002449112447  0.0000004898224893  0.0000000000000000  0.0000000000000000 -0.0000000000000000  0.0000013597722819  0.0000013597722819 -0.0000027195445638 -0.0000000000000000  0.0000000000000000 -0.0000000000000000 -0.0000002449112447 -0.0000002449112447  0.0000004898224893
 -0.0000000000000000 -0.0000000000000000 -0.0000000000000000 -0.0000000000000000 -0.0000000000000000 -0.0000000000000000 -0.0000000000000000 -0.0000000000000000 -0.0000000000000000  0.0000000000000000 -0.0000000000000000  0.0000000000000000 -0.0000000000000000  0.0000000000000000 -0.0000000000000000  0.0000000000000000 -0.0000000000000000 -0.0000000000000000 -0.0000000000000000 -0.0000000000000000 -0.0000000000000000  0.0000000000000000  0.0000000000000000  0.0000000000000000 -0.0000000000000000 -0.0000000000000000 -0.0000000000000000  0.0000000000000000  0.0000000000000000  0.0000000000000000 -0.0000000000000000  0.0000000000000000 -0.0000000000000000 -0.0000000000000000  0.0000000000000000  0.0000000000000000  0.0000000000000000 -0.0000000000000000  0.0000000000000000  0.0000000000000000 -0.0000000000000000 -0.0000000000000000  0.0000000000000000 -0.0000000000000000 -0.0000000000000000 -0.0000000000000000  0.0000000000000000  0.0000000000000000
 -0.0000000000000000 -0.0000000000000000 -0.0000000000000001 -0.0000000000000000 -0.0000000000000000 -0.0000000000000000 -0.0000000000000001 -0.0000000000000000 -0.0000000000000000  0.0000000000000000 -0.0000000000000000  0.0000000000000000 -0.0000000000000000  0.0000000000000000 -0.0000000000000000  0.0000000000000000 -0.0000000000000000 -0.0000000000000000 -0.0000000000000000 -0.0000000000000000 -0.0000000000000000  0.0000000000000000  0.0000000000000000  0.0000000000000000 -0.0000000000000000 -0.0000000000000000 -0.0000000000000000  0.0000000000000000  0.0000000000000000  0.0000000000000000 -0.0000000000000000  0.0000000000000000 -0.0000000000000000 -0.0000000000000000  0.0000000000000000  0.0000000000000000  0.0000000000000000 -0.0000000000000000  0.0000000000000000  0.0000000000000000 -0.0000000000000000 -0.0000000000000000  0.0000000000000000 -0.0000000000000000 -0.0000000000000000 -0.0000000000000000  0.0000000000000000  0.0000000000000000  0.0000000000000000
 -0.0000000000000000 -0.0000000000000000 -0.0000000000000000 -0.0000000000000000 -0.0000000000000000 -0.0000000000000000 -0.0000000000000000 -0.0000000000000000 -0.0000000000000000  0.0000000000000000 -0.0000000000000000  0.0000000000000000 -0.0000000000000000  0.0000000000000000 -0.0000000000000000  0.0000000000000000 -0.0000000000000000 -0.0000000000000000 -0.0000000000000000 -0.0000000000000000 -0.0000000000000000  0.0000000000000000  0.0000000000000000  0.0000000000000000 -0.0000000000000000 -0.0000000000000000 -0.0000000000000000  0.0000000000000000  0.0000000000000000  0.0000000000000000 -0.0000000000000000  0.0000000000000000 -0.0000000000000000 -0.0000000000000000  0.0000000000000000  0.0000000000000000  0.0000000000000000 -0.0000000000000000  0.0000000000000000  0.0000000000000000 -0.0000000000000000 -0.0000000000000000  0.0000000000000000 -0.0000000000000000 -0.0000000000000000 -0.0000000000000000  0.0000000000000000  0.0000000000000000  0.0000000000000000  0.0000000000000000
 -0.0001746691881189 -0.0003686804635266 -0.0006548587465252 -0.0002528455864206 -0.0001746691881189 -0.0003686804635266 -0.0006548587465252 -0.0002528455864206 -0.0000000000000000  0.0000000000000000 -0.0000043035511652  0.0000000000000000 -0.0000000000000000  0.0000067139083234 -0.0000000000000000  0.0000000000000000 -0.0000857114992865 -0.0000000000000000 -0.0000000000000000 -0.0000531037426718 -0.0000000000000000  0.0000000000000000  0.0000043035511652  0.0000000000000000 -0.0000000000000000 -0.0000067139083234 -0.0000000000000000  0.0000000000000000  0.0000857114992865  0.0000000000000000 -0.0000000000000000  0.0000531037426718 -0.0000006798861409 -0.0000006798861409  0.0000013597722819  0.0000000000000000  0.0000000000000000 -0.0000000000000000  0.0000037747973988  0.0000037747973988 -0.0000075495947975 -0.0000000000000000  0.0000000000000000 -0.0000000000000000 -0.0000006798861409 -0.0000006798861409  0.0000013597722819  0.0000000000000000  0.0000000000000000  0.0000000000000000  0.0000037747973988
 -0.0001746691881189 -0.0003686804635266 -0.0006548587465252 -0.0002528455864206 -0.0001746691881189 -0.0003686804635266 -0.0006548587465252 -0.0002528455864206 -0.0000000000000000  0.0000000000000000 -0.0000043035511652  0.0000000000000000 -0.0000000000000000  0.0000067139083234 -0.0000000000000000  0.0000000000000000 -0.0000857114992865 -0.0000000000000000 -0.0000000000000000 -0.0000531037426718 -0.0000000000000000  0.0000000000000000  0.0000043035511652  0.0000000000000000 -0.0000000000000000 -0.0000067139083234 -0.0000000000000000  0.0000000000000000  0.0000857114992865  0.0000000000000000 -0.0000000000000000  0.0000531037426718 -0.0000006798861409 -0.0000006798861409  0.0000013597722819  0.0000000000000000  0.0000000000000000 -0.0000000000000000  0.0000037747973988  0.0000037747973988 -0.0000075495947975 -0.0000000000000000  0.0000000000000000 -0.0000000000000000 -0.0000006798861409 -0.0000006798861409  0.0000013597722819  0.0000000000000000  0.0000000000000000  0.0000000000000000  0.0000037747973988  0.0000037747973988
  0.0003493383762378  0.0007373609270533  0.0013097174930504  0.0005056911728412  0.0003493383762378  0.0007373609270532  0.0013097174930503  0.0005056911728412  0.0000000000000000 -0.0000000000000000  0.0000086071023304 -0.0000000000000000  0.0000000000000000 -0.0000134278166467  0.0000000000000000 -0.0000000000000000  0.0001714229985729  0.0000000000000000  0.0000000000000000  0.0001062074853436  0.0000000000000000 -0.0000000000000000 -0.0000086071023304 -0.0000000000000000  0.0000000000000000  0.0000134278166467  0.0000000000000000 -0.0000000000000000 -0.0001714229985729 -0.0000000000000000  0.0000000000000000 -0.0001062074853436  0.0000013597722819  0.0000013597722819 -0.0000027195445638 -0.0000000000000000 -0.0000000000000000  0.0000000000000000 -0.0000075495947975 -0.0000075495947975  0.0000150991895951  0.0000000000000000 -0.0000000000000000  0.0000000000000000  0.0000013597722819  0.0000013597722819 -0.0000027195445638 -0.0000000000000000 -0.0000000000000000 -0.0000000000000000 -0.0000075495947975 -0.0000075495947975  0.0000150991895951
 -0.0000000000000000 -0.0000000000000000 -0.0000000000000000 -0.0000000000000000 -0.0000000000000000 -0.0000000000000000 -0.0000000000000000 -0.0000000000000000 -0.0000000000000000  0.0000000000000000 -0.0000000000000000  0.0000000000000000 -0.0000000000000000  0.0000000000000000 -0.0000000000000000  0.0000000000000000 -0.0000000000000000 -0.0000000000000000 -0.0000000000000000 -0.0000000000000000 -0.0000000000000000  0.0000000000000000  0.0000000000000000  0.0000000000000000 -0.0000000000000000 -0.0000000000000000 -0.0000000000000000  0.0000000000000000  0.0000000000000000  0.0000000000000000 -0.0000000000000000  0.0000000000000000 -0.0000000000000000 -0.0000000000000000  0.0000000000000000  0.0000000000000000  0.0000000000000000 -0.0000000000000000  0.0000000000000000  0.0000000000000000 -0.0000000000000000 -0.0000000000000000  0.0000000000000000 -0.0000000000000000 -0.0000000000000000 -0.0000000000000000  0.0000000000000000  0.0000000000000000  0.0000000000000000  0.0000000000000000  0.0000000000000000  0.0000000000000000 -0.0000000000000000  0.0000000000000000
  0.0000000000000000  0.0000000000000001  0.0000000000000001  0.0000000000000001  0.0000000000000000  0.0000000000000001  0.0000000000000001  0.0000000000000001  0.0000000000000000 -0.0000000000000000  0.0000000000000000 -0.0000000000000000  0.0000000000000000 -0.0000000000000000  0.0000000000000000 -0.0000000000000000  0.0000000000000000  0.0000000000000000  0.0000000000000000  0.0000000000000000  0.0000000000000000 -0.0000000000000000 -0.0000000000000000 -0.0000000000000000  0.0000000000000000  0.0000000000000000  0.0000000000000000 -0.0000000000000000 -0.0000000000000000 -0.0000000000000000  0.0000000000000000 -0.0000000000000000  0.0000000000000000  0.0000000000000000 -0.0000000000000000 -0.0000000000000000 -0.0000000000000000  0.0000000000000000 -0.0000000000000000 -0.0000000000000000  0.0000000000000000  0.0000000000000000 -0.0000000000000000  0.0000000000000000  0.0000000000000000  0.0000000000000000 -0.0000000000000000 -0.0000000000000000 -0.0000000000000000 -0.0000000000000000 -0.0000000000000000 -0.0000000000000000  0.0000000000000000 -0.0000000000000000  0.0000000000000000
  0.0000000000000000  0.0000000000000001  0.0000000000000001  0.0000000000000001  0.0000000000000000  0.0000000000000001  0.0000000000000001  0.0000000000000001  0.0000000000000000 -0.0000000000000000  0.0000000000000000 -0.0000000000000000  0.0000000000000000 -0.0000000000000000  0.0000000000000000 -0.0000000000000000  0.0000000000000000  0.0000000000000000  0.0000000000000000  0.0000000000000000  0.0000000000000000 -0.0000000000000000 -0.0000000000000000 -0.0000000000000000  0.0000000000000000  0.0000000000000000  0.0000000000000000 -0.0000000000000000 -0.0000000000000000 -0.0000000000000000  0.0000000000000000 -0.0000000000000000  0.0000000000000000  0.0000000000000000 -0.0000000000000000 -0.0000000000000000 -0.0000000000000000  0.0000000000000000 -0.0000000000000000 -0.0000000000000000  0.0000000000000000  0.0000000000000000 -0.0000000000000000  0.0000000000000000  0.0000000000000000  0.0000000000000000 -0.0000000000000000 -0.0000000000000000 -0.0000000000000000 -0.0000000000000000 -0.0000000000000000 -0.0000000000000000  0.0000000000000000 -0.0000000000000000  0.0000000000000000  0.0000000000000000
 -0.0000000000000000 -0.0000000000000000 -0.0000000000000000 -0.0000000000000000 -0.0000000000000000 -0.0000000000000000 -0.0000000000000000 -0.0000000000000000 -0.0000000000000000  0.0000000000000000 -0.0000000000000000  0.0000000000000000 -0.0000000000000000  0.0000000000000000 -0.0000000000000000  0.0000000000000000 -0.0000000000000000 -0.0000000000000000 -0.0000000000000000 -0.0000000000000000 -0.0000000000000000  0.0000000000000000  0.0000000000000000  0.0000000000000000 -0.0000000000000000 -0.0000000000000000 -0.0000000000000000  0.0000000000000000  0.0000000000000000  0.0000000000000000 -0.0000000000000000  0.0000000000000000 -0.0000000000000000 -0.0000000000000000  0.0000000000000000  0.0000000000000000  0.0000000000000000 -0.0000000000000000  0.0000000000000000  0.0000000000000000 -0.0000000000000000 -0.0000000000000000  0.0000000000000000 -0.0000000000000000 -0.0000000000000000 -0.0000000000000000  0.0000000000000000  0.0000000000000000  0.0000000000000000  0.0000000000000000  0.0000000000000000  0.0000000000000000 -0.0000000000000000  0.0000000000000000 -0.0000000000000000 -0.0000000000000000  0.0000000000000000
 -0.0000000000000000 -0.0000000000000000 -0.0000000000000000 -0.0000000000000000 -0.0000000000000000 -0.0000000000000000 -0.0000000000000000 -0.0000000000000000 -0.0000000000000000  0.0000000000000000 -0.0000000000000000  0.0000000000000000 -0.0000000000000000  0.0000000000000000 -0.0000000000000000  0.0000000000000000 -0.0000000000000000 -0.0000000000000000 -0.0000000000000000 -0.0000000000000000 -0.0000000000000000  0.0000000000000000  0.0000000000000000  0.0000000000000000 -0.0000000000000000 -0.0000000000000000 -0.0000000000000000  0.0000000000000000  0.0000000000000000  0.0000000000000000 -0.0000000000000000  0.0000000000000000 -0.0000000000000000 -0.0000000000000000  0.0000000000000000  0.0000000000000000  0.0000000000000000 -0.0000000000000000  0.0000000000000000  0.0000000000000000 -0.0000000000000000 -0.0000000000000000  0.0000000000000000 -0.0000000000000000 -0.0000000000000000 -0.0000000000000000  0.0000000000000000  0.0000000000000000  0.0000000000000000  0.0000000000000000  0.0000000000000000  0.0000000000000000 -0.0000000000000000  0.0000000000000000 -0.0000000000000000 -0.0000000000000000  0.0000000000000000  0.0000000000000000
  0.0000086926728401  0.0000183479335222  0.0000325900228960  0.0000125832379797  0.0000086926728401  0.0000183479335222  0.0000325900228960  0.0000125832379797  0.0000000000000000 -0.0000000000000000  0.0000002141726468 -0.0000000000000000  0.0000000000000000 -0.0000003341276682  0.0000000000000000 -0.0000000000000000  0.0000042655606862  0.0000000000000000  0.0000000000000000  0.0000026427870113  0.0000000000000000 -0.0000000000000000 -0.0000002141726468 -0.0000000000000000  0.0000000000000000  0.0000003341276682  0.0000000000000000 -0.0000000000000000 -0.0000042655606862 -0.0000000000000000  0.0000000000000000 -0.0000026427870113  0.0000000338355485  0.0000000338355485 -0.0000000676710971 -0.0000000000000000 -0.0000000000000000  0.0000000000000000 -0.0000001878584264 -0.0000001878584264  0.0000003757168529  0.0000000000000000 -0.0000000000000000  0.0000000000000000  0.0000000338355485  0.0000000338355485 -0.0000000676710971 -0.0000000000000000 -0.0000000000000000 -0.0000000000000000 -0.0000001878584264 -0.0000001878584264  0.0000003757168529 -0.0000000000000000  0.0000000000000000  0.0000000000000000 -0.0000000000000000 -0.0000000000000000  0.0000000093490550
  0.0000000000000000  0.0000000000000000  0.0000000000000000  0.0000000000000000  0.0000000000000000  0.0000000000000000  0.0000000000000000  0.0000000000000000  0.0000000000000000 -0.0000000000000000  0.0000000000000000 -0.0000000000000000  0.0000000000000000 -0.0000000000000000  0.0000000000000000 -0.0000000000000000  0.0000000000000000  0.0000000000000000  0.0000000000000000  0.0000000000000000  0.0000000000000000 -0.0000000000000000 -0.0000000000000000 -0.0000000000000000  0.0000000000000000  0.0000000000000000  0.0000000000000000 -0.0000000000000000 -0.0000000000000000 -0.0000000000000000  0.0000000000000000 -0.0000000000000000  0.0000000000000000  0.0000000000000000 -0.0000000000000000 -0.0000000000000000 -0.0000000000000000  0.0000000000000000 -0.0000000000000000 -0.0000000000000000  0.0000000000000000  0.0000000000000000 -0.0000000000000000  0.0000000000000000  0.0000000000000000  0.0000000000000000 -0.0000000000000000 -0.0000000000000000 -0.0000000000000000 -0.0000000000000000 -0.0000000000000000 -0.0000000000000000  0.0000000000000000 -0.0000000000000000  0.0000000000000000  0.0000000000000000 -0.0000000000000000 -0.0000000000000000  0.0000000000000000  0.0000000000000000
 -0.0000130390092602 -0.0000275219002832 -0.0000488850343440 -0.0000188748569695 -0.0000130390092602 -0.0000275219002832 -0.0000488850343440 -0.0000188748569695 -0.0000000000000000  0.0000000000000000 -0.0000003212589702  0.0000000000000000 -0.0000000000000000  0.0000005011915023 -0.0000000000000000  0.0000000000000000 -0.0000063983410293 -0.0000000000000000 -0.0000000000000000 -0.0000039641805169 -0.0000000000000000  0.0000000000000000  0.0000003212589702  0.0000000000000000 -0.0000000000000000 -0.0000005011915023 -0.0000000000000000  0.0000000000000000  0.0000063983410293  0.0000000000000000 -0.0000000000000000  0.0000039641805169 -0.0000000507533228 -0.0000000507533228  0.0000001015066456  0.0000000000000000  0.0000000000000000 -0.0000000000000000  0.0000002817876396  0.0000002817876396 -0.0000005635752793 -0.0000000000000000  0.0000000000000000 -0.0000000000000000 -0.0000000507533228 -0.0000000507533228  0.0000001015066456  0.0000000000000000  0.0000000000000000  0.0000000000000000  0.0000002817876396  0.0000002817876396 -0.0000005635752793  0.0000000000000000 -0.0000000000000000 -0.0000000000000000  0.0000000000000000  0.0000000000000000 -0.0000000140235825 -0.0000000000000000  0.0000000210353737
 -0.0000000000000000 -0.0000000000000000 -0.0000000000000000 -0.0000000000000000 -0.0000000000000000 -0.0000000000000000 -0.0000000000000000 -0.0000000000000000 -0.0000000000000000  0.0000000000000000 -0.0000000000000000  0.0000000000000000 -0.0000000000000000  0.0000000000000000 -0.0000000000000000  0.0000000000000000 -0.0000000000000000 -0.0000000000000000 -0.0000000000000000 -0.0000000000000000 -0.0000000000000000  0.0000000000000000  0.0000000000000000  0.0000000000000000 -0.0000000000000000 -0.0000000000000000 -0.0000000000000000  0.0000000000000000  0.0000000000000000  0.0000000000000000 -0.0000000000000000  0.0000000000000000 -0.0000000000000000 -0.0000000000000000  0.0000000000000000  0.0000000000000000  0.0000000000000000 -0.0000000000000000  0.0000000000000000  0.0000000000000000 -0.0000000000000000 -0.0000000000000000  0.0000000000000000 -0.0000000000000000 -0.0000000000000000 -0.0000000000000000  0.0000000000000000  0.0000000000000000  0.0000000000000000  0.0000000000000000  0.0000000000000000  0.0000000000000000 -0.0000000000000000  0.0000000000000000 -0.0000000000000000 -0.0000000000000000  0.0000000000000000  0.0000000000000000 -0.0000000000000000 -0.0000000000000000  0.0000000000000000  0.0000000000000000
 -0.0000130390092602 -0.0000275219002832 -0.0000488850343440 -0.0000188748569695 -0.0000130390092602 -0.0000275219002832 -0.0000488850343440 -0.0000188748569695 -0.0000000000000000  0.0000000000000000 -0.0000003212589702  0.0000000000000000 -0.0000000000000000  0.0000005011915023 -0.0000000000000000  0.0000000000000000 -0.0000063983410293 -0.0000000000000000 -0.0000000000000000 -0.0000039641805169 -0.0000000000000000  0.0000000000000000  0.0000003212589702  0.0000000000000000 -0.0000000000000000 -0.0000005011915023 -0.0000000000000000  0.0000000000000000  0.0000063983410293  0.0000000000000000 -0.0000000000000000  0.0000039641805169 -0.0000000507533228 -0.0000000507533228  0.0000001015066456  0.0000000000000000  0.0000000000000000 -0.0000000000000000  0.0000002817876396  0.0000002817876396 -0.0000005635752793 -0.0000000000000000  0.0000000000000000 -0.0000000000000000 -0.0000000507533228 -0.0000000507533228  0.0000001015066456  0.0000000000000000  0.0000000000000000  0.0000000000000000  0.0000002817876396  0.0000002817876396 -0.0000005635752793  0.0000000000000000 -0.0000000000000000 -0.0000000000000000  0.0000000000000000  0.0000000000000000 -0.0000000140235825 -0.0000000000000000  0.0000000210353737  0.0000000000000000  0.0000000210353737
  0.0000000000000000  0.0000000000000000  0.0000000000000000  0.0000000000000000  0.0000000000000000  0.0000000000000000  0.0000000000000000  0.0000000000000000  0.0000000000000000 -0.0000000000000000  0.0000000000000000 -0.0000000000000000  0.0000000000000000 -0.0000000000000000  0.0000000000000000 -0.0000000000000000  0.0000000000000000  0.0000000000000000  0.0000000000000000  0.0000000000000000  0.0000000000000000 -0.0000000000000000 -0.0000000000000000 -0.0000000000000000  0.0000000000000000  0.0000000000000000  0.0000000000000000 -0.0000000000000000 -0.0000000000000000 -0.0000000000000000  0.0000000000000000 -0.0000000000000000  0.0000000000000000  0.0000000000000000 -0.0000000000000000 -0.0000000000000000 -0.0000000000000000  0.0000000000000000 -0.0000000000000000 -0.0000000000000000  0.0000000000000000  0.0000000000000000 -0.0000000000000000  0.0000000000000000  0.0000000000000000  0.0000000000000000 -0.0000000000000000 -0.0000000000000000 -0.0000000000000000 -0.0000000000000000 -0.0000000000000000 -0.0000000000000000  0.0000000000000000 -0.0000000000000000  0.0000000000000000  0.0000000000000000 -0.0000000000000000 -0.0000000000000000  0.0000000000000000  0.0000000000000000 -0.0000000000000000 -0.0000000000000000 -0.0000000000000000  0.0000000000000000
  0.0000000000000000  0.0000000000000000  0.0000000000000000  0.0000000000000000  0.0000000000000000  0.0000000000000000  0.0000000000000000  0.0000000000000000  0.0000000000000000 -0.0000000000000000  0.0000000000000000 -0.0000000000000000  0.0000000000000000 -0.0000000000000000  0.0000000000000000 -0.0000000000000000  0.0000000000000000  0.0000000000000000  0.0000000000000000  0.0000000000000000  0.0000000000000000 -0.0000000000000000 -0.0000000000000000 -0.0000000000000000  0.0000000000000000  0.0000000000000000  0.0000000000000000 -0.0000000000000000 -0.0000000000000000 -0.0000000000000000  0.0000000000000000 -0.0000000000000000  0.0000000000000000  0.0000000000000000 -0.0000000000000000 -0.0000000000000000 -0.0000000000000000  0.0000000000000000 -0.0000000000000000 -0.0000000000000000  0.0000000000000000  0.0000000000000000 -0.0000000000000000  0.0000000000000000  0.0000000000000000  0.0000000000000000 -0.0000000000000000 -0.0000000000000000 -0.0000000000000000 -0.0000000000000000 -0.0000000000000000 -0.0000000000000000  0.0000000000000000 -0.0000000000000000  0.0000000000000000  0.0000000000000000 -0.0000000000000000 -0.0000000000000000  0.0000000000000000  0.0000000000000000 -0.0000000000000000 -0.0000000000000000 -0.0000000000000000  0.0000000000000000  0.0000000000000000
 -0.0000000000000000 -0.0000000000000000 -0.0000000000000000 -0.0000000000000000 -0.0000000000000000 -0.0000000000000000 -0.0000000000000000 -0.0000000000000000 -0.0000000000000000  0.0000000000000000 -0.0000000000000000  0.0000000000000000 -0.0000000000000000  0.0000000000000000 -0.0000000000000000  0.0000000000000000 -0.0000000000000000 -0.0000000000000000 -0.0000000000000000 -0.0000000000000000 -0.0000000000000000  0.0000000000000000  0.0000000000000000  0.0000000000000000 -0.0000000000000000 -0.0000000000000000 -0.0000000000000000  0.0000000000000000  0.0000000000000000  0.0000000000000000 -0.0000000000000000  0.0000000000000000 -0.0000000000000000 -0.0000000000000000  0.0000000000000000  0.0000000000000000  0.0000000000000000 -0.0000000000000000  0.0000000000000000  0.0000000000000000 -0.0000000000000000 -0.0000000000000000  0.0000000000000000 -0.0000000000000000 -0.0000000000000000 -0.0000000000000000  0.0000000000000000  0.0000000000000000  0.0000000000000000  0.0000000000000000  0.0000000000000000  0.0000000000000000 -0.0000000000000000  0.0000000000000000 -0.0000000000000000 -0.0000000000000000  0.0000000000000000  0.0000000000000000 -0.0000000000000000 -0.0000000000000000  0.0000000000000000  0.0000000000000000  0.0000000000000000 -0.0000000000000000 -0.0000000000000000  0.0000000000000000
  0.0000000000000000  0.0000000000000000  0.0000000000000000  0.0000000000000000  0.0000000000000000  0.0000000000000000  0.0000000000000000  0.0000000000000000  0.0000000000000000 -0.0000000000000000  0.0000000000000000 -0.0000000000000000  0.0000000000000000 -0.0000000000000000  0.0000000000000000 -0.0000000000000000  0.0000000000000000  0.0000000000000000  0.0000000000000000  0.0000000000000000  0.0000000000000000 -0.0000000000000000 -0.0000000000000000 -0.0000000000000000  0.0000000000000000  0.0000000000000000  0.0000000000000000 -0.0000000000000000 -0.0000000000000000 -0.0000000000000000  0.0000000000000000 -0.0000000000000000  0.0000000000000000  0.0000000000000000 -0.0000000000000000 -0.0000000000000000 -0.0000000000000000  0.0000000000000000 -0.0000000000000000 -0.0000000000000000  0.0000000000000000  0.0000000000000000 -0.0000000000000000  0.0000000000000000  0.0000000000000000  0.0000000000000000 -0.0000000000000000 -0.0000000000000000 -0.0000000000000000 -0.0000000000000000 -0.0000000000000000 -0.0000000000000000  0.0000000000000000 -0.0000000000000000  0.0000000000000000  0.0000000000000000 -0.0000000000000000 -0.0000000000000000  0.0000000000000000  0.0000000000000000 -0.0000000000000000 -0.0000000000000000 -0.0000000000000000  0.0000000000000000  0.0000000000000000 -0.0000000000000000  0.0000000000000000
 -0.0000000000000000 -0.0000000000000000 -0.0000000000000000 -0.0000000000000000 -0.0000000000000000 -0.0000000000000000 -0.0000000000000000 -0.0000000000000000 -0.0000000000000000  0.0000000000000000 -0.0000000000000000  0.0000000000000000 -0.0000000000000000  0.0000000000000000 -0.0000000000000000  0.0000000000000000 -0.0000000000000000 -0.0000000000000000 -0.0000000000000000 -0.0000000000000000 -0.0000000000000000  0.0000000000000000  0.0000000000000000  0.0000000000000000 -0.0000000000000000 -0.0000000000000000 -0.0000000000000000  0.0000000000000000  0.0000000000000000  0.0000000000000000 -0.0000000000000000  0.0000000000000000 -0.0000000000000000 -0.0000000000000000  0.0000000000000000  0.0000000000000000  0.0000000000000000 -0.0000000000000000  0.0000000000000000  0.0000000000000000 -0.0000000000000000 -0.0000000000000000  0.0000000000000000 -0.0000000000000000 -0.0000000000000000 -0.0000000000000000  0.0000000000000000  0.0000000000000000  0.0000000000000000  0.0000000000000000  0.0000000000000000  0.0000000000000000 -0.0000000000000000  0.0000000000000000 -0.0000000000000000 -0.0000000000000000  0.0000000000000000  0.0000000000000000 -0.0000000000000000 -0.0000000000000000  0.0000000000000000  0.0000000000000000  0.0000000000000000 -0.0000000000000000 -0.0000000000000000  0.0000000000000000 -0.0000000000000000  0.0000000000000000
 -0.0000086926728401 -0.0000183479335222 -0.0000325900228960 -0.0000125832379797 -0.0000086926728401 -0.0000183479335222 -0.0000325900228960 -0.0000125832379797 -0.0000000000000000  0.0000000000000000 -0.0000002141726468  0.0000000000000000 -0.0000000000000000  0.0000003341276682 -0.0000000000000000  0.0000000000000000 -0.0000042655606862 -0.0000000000000000 -0.0000000000000000 -0.0000026427870113 -0.0000000000000000  0.0000000000000000  0.0000002141726468  0.0000000000000000 -0.0000000000000000 -0.0000003341276682 -0.0000000000000000  0.0000000000000000  0.0000042655606862  0.0000000000000000 -0.0000000000000000  0.0000026427870113 -0.0000000338355485 -0.0000000338355485  0.0000000676710971  0.0000000000000000  0.0000000000000000 -0.0000000000000000  0.0000001878584264  0.0000001878584264 -0.0000003757168529 -0.0000000000000000  0.0000000000000000 -0.0000000000000000 -0.0000000338355485 -0.0000000338355485  0.0000000676710971  0.0000000000000000  0.0000000000000000  0.0000000000000000  0.0000001878584264  0.0000001878584264 -0.0000003757168529  0.0000000000000000 -0.0000000000000000 -0.0000000000000000  0.0000000000000000  0.0000000000000000 -0.0000000093490550 -0.0000000000000000  0.0000000140235825  0.0000000000000000  0.0000000140235825 -0.0000000000000000 -0.0000000000000000  0.0000000000000000 -0.0000000000000000  0.0000000000000000  0.0000000093490550
  0.0000000000000000  0.0000000000000000  0.0000000000000000  0.0000000000000000  0.0000000000000000  0.0000000000000000  0.0000000000000000  0.0000000000000000  0.0000000000000000 -0.0000000000000000  0.0000000000000000 -0.0000000000000000  0.0000000000000000 -0.0000000000000000  0.0000000000000000 -0.0000000000000000  0.0000000000000000  0.0000000000000000  0.0000000000000000  0.0000000000000000  0.0000000000000000 -0.0000000000000000 -0.0000000000000000 -0.0000000000000000  0.0000000000000000  0.0000000000000000  0.0000000000000000 -0.0000000000000000 -0.0000000000000000 -0.0000000000000000  0.0000000000000000 -0.0000000000000000  0.0000000000000000  0.0000000000000000 -0.0000000000000000 -0.0000000000000000 -0.0000000000000000  0.0000000000000000 -0.0000000000000000 -0.0000000000000000  0.0000000000000000  0.0000000000000000 -0.0000000000000000  0.0000000000000000  0.0000000000000000  0.0000000000000000 -0.0000000000000000 -0.0000000000000000 -0.0000000000000000 -0.0000000000000000 -0.0000000000000000 -0.0000000000000000  0.0000000000000000 -0.0000000000000000  0.0000000000000000  0.0000000000000000 -0.0000000000000000 -0.0000000000000000  0.0000000000000000  0.0000000000000000 -0.0000000000000000 -0.0000000000000000 -0.0000000000000000  0.0000000000000000  0.0000000000000000 -0.0000000000000000  0.0000000000000000 -0.0000000000000000 -0.0000000000000000  0.0000000000000000
  0.0000130390092602  0.0000275219002832  0.0000488850343440  0.0000188748569695  0.0000130390092602  0.0000275219002832  0.0000488850343440  0.0000188748569695  0.0000000000000000 -0.0000000000000000  0.0000003212589702 -0.0000000000000000  0.0000000000000000 -0.0000005011915023  0.0000000000000000 -0.0000000000000000  0.0000063983410293  0.0000000000000000  0.0000000000000000  0.0000039641805169  0.0000000000000000 -0.0000000000000000 -0.0000003212589702 -0.0000000000000000  0.0000000000000000  0.0000005011915023  0.0000000000000000 -0.0000000000000000 -0.0000063983410293 -0.0000000000000000  0.0000000000000000 -0.0000039641805169  0.0000000507533228  0.0000000507533228 -0.0000001015066456 -0.0000000000000000 -0.0000000000000000  0.0000000000000000 -0.0000002817876396 -0.0000002817876396  0.0000005635752793  0.0000000000000000 -0.0000000000000000  0.0000000000000000  0.0000000507533228  0.0000000507533228 -0.0000001015066456 -0.0000000000000000 -0.0000000000000000 -0.0000000000000000 -0.0000002817876396 -0.0000002817876396  0.0000005635752793 -0.0000000000000000  0.0000000000000000  0.0000000000000000 -0.0000000000000000 -0.0000000000000000  0.0000000140235825  0.0000000000000000 -0.0000000210353737 -0.0000000000000000 -0.0000000210353737  0.0000000000000000  0.0000000000000000 -0.0000000000000000  0.0000000000000000 -0.0000000000000000 -0.0000000140235825  0.0000000000000000  0.0000000210353737
 -0.0000000000000000 -0.0000000000000000 -0.0000000000000000 -0.0000000000000000 -0.0000000000000000 -0.0000000000000000 -0.0000000000000000 -0.0000000000000000 -0.0000000000000000  0.0000000000000000 -0.0000000000000000  0.0000000000000000 -0.0000000000000000  0.0000000000000000 -0.0000000000000000  0.0000000000000000 -0.0000000000000000 -0.0000000000000000 -0.0000000000000000 -0.0000000000000000 -0.0000000000000000  0.0000000000000000  0.0000000000000000  0.0000000000000000 -0.0000000000000000 -0.0000000000000000 -0.0000000000000000  0.0000000000000000  0.0000000000000000  0.0000000000000000 -0.0000000000000000  0.0000000000000000 -0.0000000000000000 -0.0000000000000000  0.0000000000000000  0.0000000000000000  0.0000000000000000 -0.0000000000000000  0.0000000000000000  0.0000000000000000 -0.0000000000000000 -0.0000000000000000  0.0000000000000000 -0.0000000000000000 -0.0000000000000000 -0.0000000000000000  0.0000000000000000  0.0000000000000000  0.0000000000000000  0.0000000000000000  0.0000000000000000  0.0000000000000000 -0.0000000000000000  0.0000000000000000 -0.0000000000000000 -0.0000000000000000  0.0000000000000000  0.0000000000000000 -0.0000000000000000 -0.0000000000000000  0.0000000000000000  0.0000000000000000  0.0000000000000000 -0.0000000000000000 -0.0000000000000000  0.0000000000000000 -0.0000000000000000  0.0000000000000000  0.0000000000000000 -0.0000000000000000 -0.0000000000000000  0.0000000000000000
  0.0000130390092601  0.0000275219002832  0.0000488850343440  0.0000188748569695  0.0000130390092601  0.0000275219002832  0.0000488850343440  0.0000188748569695  0.0000000000000000 -0.0000000000000000  0.0000003212589702 -0.0000000000000000  0.0000000000000000 -0.0000005011915023  0.0000000000000000 -0.0000000000000000  0.0000063983410293  0.0000000000000000  0.0000000000000000  0.0000039641805169  0.0000000000000000 -0.0000000000000000 -0.0000003212589702 -0.0000000000000000  0.0000000000000000  0.0000005011915023  0.0000000000000000 -0.0000000000000000 -0.0000063983410293 -0.0000000000000000  0.0000000000000000 -0.0000039641805169  0.0000000507533228  0.0000000507533228 -0.0000001015066456 -0.0000000000000000 -0.0000000000000000  0.0000000000000000 -0.0000002817876396 -0.0000002817876396  0.0000005635752793  0.0000000000000000 -0.0000000000000000  0.0000000000000000  0.0000000507533228  0.0000000507533228 -0.0000001015066456 -0.0000000000000000 -0.0000000000000000 -0.0000000000000000 -0.0000002817876396 -0.0000002817876396  0.0000005635752793 -0.0000000000000000  0.0000000000000000  0.0000000000000000 -0.0000000000000000 -0.0000000000000000  0.0000000140235825  0.0000000000000000 -0.0000000210353737 -0.0000000000000000 -0.0000000210353737  0.0000000000000000  0.0000000000000000 -0.0000000000000000  0.0000000000000000 -0.0000000000000000 -0.0000000140235825  0.0000000000000000  0.0000000210353737 -0.0000000000000000  0.0000000210353737
  0.0000000000000000  0.0000000000000000  0.0000000000000000  0.0000000000000000  0.0000000000000000  0.0000000000000000  0.0000000000000000  0.0000000000000000  0.0000000000000000 -0.0000000000000000  0.0000000000000000 -0.0000000000000000  0.0000000000000000 -0.0000000000000000  0.0000000000000000 -0.0000000000000000  0.0000000000000000  0.0000000000000000  0.0000000000000000  0.0000000000000000  0.0000000000000000 -0.0000000000000000 -0.0000000000000000 -0.0000000000000000  0.0000000000000000  0.0000000000000000  0.0000000000000000 -0.0000000000000000 -0.0000000000000000 -0.0000000000000000  0.0000000000000000 -0.0000000000000000  0.0000000000000000  0.0000000000000000 -0.0000000000000000 -0.0000000000000000 -0.0000000000000000  0.0000000000000000 -0.0000000000000000 -0.0000000000000000  0.0000000000000000  0.0000000000000000 -0.0000000000000000  0.0000000000000000  0.0000000000000000  0.0000000000000000 -0.0000000000000000 -0.0000000000000000 -0.0000000000000000 -0.0000000000000000 -0.0000000000000000 -0.0000000000000000  0.0000000000000000 -0.0000000000000000  0.0000000000000000  0.0000000000000000 -0.0000000000000000 -0.0000000000000000  0.0000000000000000  0.0000000000000000 -0.0000000000000000 -0.0000000000000000 -0.0000000000000000  0.0000000000000000  0.0000000000000000 -0.0000000000000000  0.0000000000000000 -0.0000000000000000 -0.0000000000000000  0.0000000000000000  0.0000000000000000 -0.0000000000000000  0.0000000000000000  0.0000000000000000
 -0.0000000000000000 -0.0000000000000000 -0.0000000000000000 -0.0000000000000000 -0.0000000000000000 -0.0000000000000000 -0.0000000000000000 -0.0000000000000000 -0.0000000000000000  0.0000000000000000 -0.0000000000000000  0.0000000000000000 -0.0000000000000000  0.0000000000000000 -0.0000000000000000  0.0000000000000000 -0.0000000000000000 -0.0000000000000000 -0.0000000000000000 -0.0000000000000000 -0.0000000000000000  0.0000000000000000  0.0000000000000000  0.0000000000000000 -0.0000000000000000 -0.0000000000000000 -0.0000000000000000  0.0000000000000000  0.0000000000000000  0.0000000000000000 -0.0000000000000000  0.0000000000000000 -0.0000000000000000 -0.0000000000000000  0.0000000000000000  0.0000000000000000  0.0000000000000000 -0.0000000000000000  0.0000000000000000  0.0000000000000000 -0.0000000000000000 -0.0000000000000000  0.0000000000000000 -0.0000000000000000 -0.0000000000000000 -0.0000000000000000  0.0000000000000000  0.0000000000000000  0.0000000000000000  0.0000000000000000  0.0000000000000000  0.0000000000000000 -0.0000000000000000  0.0000000000000000 -0.0000000000000000 -0.0000000000000000  0.0000000000000000  0.0000000000000000 -0.0000000000000000 -0.0000000000000000  0.0000000000000000  0.0000000000000000  0.0000000000000000 -0.0000000000000000 -0.0000000000000000  0.0000000000000000 -0.0000000000000000  0.0000000000000000  0.0000000000000000 -0.0000000000000000 -0.0000000000000000  0.0000000000000000 -0.0000000000000000 -0.0000000000000000  0.0000000000000000
 -0.0000000000000000 -0.0000000000000000 -0.0000000000000000 -0.0000000000000000 -0.0000000000000000 -0.0000000000000000 -0.0000000000000000 -0.0000000000000000 -0.0000000000000000  0.0000000000000000 -0.0000000000000000  0.0000000000000000 -0.0000000000000000  0.0000000000000000 -0.0000000000000000  0.0000000000000000 -0.0000000000000000 -0.0000000000000000 -0.0000000000000000 -0.0000000000000000 -0.0000000000000000  0.0000000000000000  0.0000000000000000  0.0000000000000000 -0.0000000000000000 -0.0000000000000000 -0.0000000000000000  0.0000000000000000  0.0000000000000000  0.0000000000000000 -0.0000000000000000  0.0000000000000000 -0.0000000000000000 -0.0000000000000000  0.0000000000000000  0.0000000000000000  0.0000000000000000 -0.0000000000000000  0.0000000000000000  0.0000000000000000 -0.0000000000000000 -0.0000000000000000  0.0000000000000000 -0.0000000000000000 -0.0000000000000000 -0.0000000000000000  0.0000000000000000  0.0000000000000000  0.0000000000000000  0.0000000000000000  0.0000000000000000  0.0000000000000000 -0.0000000000000000  0.0000000000000000 -0.0000000000000000 -0.0000000000000000  0.0000000000000000  0.0000000000000000 -0.0000000000000000 -0.0000000000000000  0.0000000000000000  0.0000000000000000  0.0000000000000000 -0.0000000000000000 -0.0000000000000000  0.0000000000000000 -0.0000000000000000  0.0000000000000000  0.0000000000000000 -0.0000000000000000 -0.0000000000000000  0.0000000000000000 -0.0000000000000000 -0.0000000000000000  0.0000000000000000  0.0000000000000000
 END
 
 Lower triangle of beta RDM in AO basis:
  0.0000000000000000
  0.0000000000000000  0.0000000000000000
  0.0000000000000000  0.0000000000000000  0.0000000000000000
  0.0000000000000000  0.0000000000000000  0.0000000000000000  0.0000000000000000
  0.0000000000000000  0.0000000000000000  0.0000000000000000  0.0000000000000000  0.0000000000000000
  0.0000000000000000  0.0000000000000000  0.0000000000000000  0.0000000000000000  0.0000000000000000  0.0000000000000000
  0.0000000000000000  0.0000000000000000  0.0000000000000000  0.0000000000000000  0.0000000000000000  0.0000000000000000  0.0000000000000000
  0.0000000000000000  0.0000000000000000  0.0000000000000000  0.0000000000000000  0.0000000000000000  0.0000000000000000  0.0000000000000000  0.0000000000000000
  0.0000000000000000  0.0000000000000000  0.0000000000000000  0.0000000000000000  0.0000000000000000  0.0000000000000000  0.0000000000000000  0.0000000000000000  0.0000000000000000
  0.0000000000000000  0.0000000000000000  0.0000000000000000  0.0000000000000000  0.0000000000000000  0.0000000000000000  0.0000000000000000  0.0000000000000000  0.0000000000000000  0.0000000000000000
  0.0000000000000000  0.0000000000000000  0.0000000000000000  0.0000000000000000  0.0000000000000000  0.0000000000000000  0.0000000000000000  0.0000000000000000  0.0000000000000000  0.0000000000000000  0.0000000000000000
  0.0000000000000000  0.0000000000000000  0.0000000000000000  0.0000000000000000  0.0000000000000000  0.0000000000000000  0.0000000000000000  0.0000000000000000  0.0000000000000000  0.0000000000000000  0.0000000000000000  0.0000000000000000
  0.0000000000000000  0.0000000000000000  0.0000000000000000  0.0000000000000000  0.0000000000000000  0.0000000000000000  0.0000000000000000  0.0000000000000000  0.0000000000000000  0.0000000000000000  0.0000000000000000  0.0000000000000000  0.0000000000000000
  0.0000000000000000  0.0000000000000000  0.0000000000000000  0.0000000000000000  0.0000000000000000  0.0000000000000000  0.0000000000000000  0.0000000000000000  0.0000000000000000  0.0000000000000000  0.0000000000000000  0.0000000000000000  0.0000000000000000  0.0000000000000000
  0.0000000000000000  0.0000000000000000  0.0000000000000000  0.0000000000000000  0.0000000000000000  0.0000000000000000  0.0000000000000000  0.0000000000000000  0.0000000000000000  0.0000000000000000  0.0000000000000000  0.0000000000000000  0.0000000000000000  0.0000000000000000  0.0000000000000000
  0.0000000000000000  0.0000000000000000  0.0000000000000000  0.0000000000000000  0.0000000000000000  0.0000000000000000  0.0000000000000000  0.0000000000000000  0.0000000000000000  0.0000000000000000  0.0000000000000000  0.0000000000000000  0.0000000000000000  0.0000000000000000  0.0000000000000000  0.0000000000000000
  0.0000000000000000  0.0000000000000000  0.0000000000000000  0.0000000000000000  0.0000000000000000  0.0000000000000000  0.0000000000000000  0.0000000000000000  0.0000000000000000  0.0000000000000000  0.0000000000000000  0.0000000000000000  0.0000000000000000  0.0000000000000000  0.0000000000000000  0.0000000000000000  0.0000000000000000
  0.0000000000000000  0.0000000000000000  0.0000000000000000  0.0000000000000000  0.0000000000000000  0.0000000000000000  0.0000000000000000  0.0000000000000000  0.0000000000000000  0.0000000000000000  0.0000000000000000  0.0000000000000000  0.0000000000000000  0.0000000000000000  0.0000000000000000  0.0000000000000000  0.0000000000000000  0.0000000000000000
  0.0000000000000000  0.0000000000000000  0.0000000000000000  0.0000000000000000  0.0000000000000000  0.0000000000000000  0.0000000000000000  0.0000000000000000  0.0000000000000000  0.0000000000000000  0.0000000000000000  0.0000000000000000  0.0000000000000000  0.0000000000000000  0.0000000000000000  0.0000000000000000  0.0000000000000000  0.0000000000000000  0.0000000000000000
  0.0000000000000000  0.0000000000000000  0.0000000000000000  0.0000000000000000  0.0000000000000000  0.0000000000000000  0.0000000000000000  0.0000000000000000  0.0000000000000000  0.0000000000000000  0.0000000000000000  0.0000000000000000  0.0000000000000000  0.0000000000000000  0.0000000000000000  0.0000000000000000  0.0000000000000000  0.0000000000000000  0.0000000000000000  0.0000000000000000
  0.0000000000000000  0.0000000000000000  0.0000000000000000  0.0000000000000000  0.0000000000000000  0.0000000000000000  0.0000000000000000  0.0000000000000000  0.0000000000000000  0.0000000000000000  0.0000000000000000  0.0000000000000000  0.0000000000000000  0.0000000000000000  0.0000000000000000  0.0000000000000000  0.0000000000000000  0.0000000000000000  0.0000000000000000  0.0000000000000000  0.0000000000000000
  0.0000000000000000  0.0000000000000000  0.0000000000000000  0.0000000000000000  0.0000000000000000  0.0000000000000000  0.0000000000000000  0.0000000000000000  0.0000000000000000  0.0000000000000000  0.0000000000000000  0.0000000000000000  0.0000000000000000  0.0000000000000000  0.0000000000000000  0.0000000000000000  0.0000000000000000  0.0000000000000000  0.0000000000000000  0.0000000000000000  0.0000000000000000  0.0000000000000000
  0.0000000000000000  0.0000000000000000  0.0000000000000000  0.0000000000000000  0.0000000000000000  0.0000000000000000  0.0000000000000000  0.0000000000000000  0.0000000000000000  0.0000000000000000  0.0000000000000000  0.0000000000000000  0.0000000000000000  0.0000000000000000  0.0000000000000000  0.0000000000000000  0.0000000000000000  0.0000000000000000  0.0000000000000000  0.0000000000000000  0.0000000000000000  0.0000000000000000  0.0000000000000000
  0.0000000000000000  0.0000000000000000  0.0000000000000000  0.0000000000000000  0.0000000000000000  0.0000000000000000  0.0000000000000000  0.0000000000000000  0.0000000000000000  0.0000000000000000  0.0000000000000000  0.0000000000000000  0.0000000000000000  0.0000000000000000  0.0000000000000000  0.0000000000000000  0.0000000000000000  0.0000000000000000  0.0000000000000000  0.0000000000000000  0.0000000000000000  0.0000000000000000  0.0000000000000000  0.0000000000000000
  0.0000000000000000  0.0000000000000000  0.0000000000000000  0.0000000000000000  0.0000000000000000  0.0000000000000000  0.0000000000000000  0.0000000000000000  0.0000000000000000  0.0000000000000000  0.0000000000000000  0.0000000000000000  0.0000000000000000  0.0000000000000000  0.0000000000000000  0.0000000000000000  0.0000000000000000  0.0000000000000000  0.0000000000000000  0.0000000000000000  0.0000000000000000  0.0000000000000000  0.0000000000000000  0.0000000000000000  0.0000000000000000
  0.0000000000000000  0.0000000000000000  0.0000000000000000  0.0000000000000000  0.0000000000000000  0.0000000000000000  0.0000000000000000  0.0000000000000000  0.0000000000000000  0.0000000000000000  0.0000000000000000  0.0000000000000000  0.0000000000000000  0.0000000000000000  0.0000000000000000  0.0000000000000000  0.0000000000000000  0.0000000000000000  0.0000000000000000  0.0000000000000000  0.0000000000000000  0.0000000000000000  0.0000000000000000  0.0000000000000000  0.0000000000000000  0.0000000000000000
  0.0000000000000000  0.0000000000000000  0.0000000000000000  0.0000000000000000  0.0000000000000000  0.0000000000000000  0.0000000000000000  0.0000000000000000  0.0000000000000000  0.0000000000000000  0.0000000000000000  0.0000000000000000  0.0000000000000000  0.0000000000000000  0.0000000000000000  0.0000000000000000  0.0000000000000000  0.0000000000000000  0.0000000000000000  0.0000000000000000  0.0000000000000000  0.0000000000000000  0.0000000000000000  0.0000000000000000  0.0000000000000000  0.0000000000000000  0.0000000000000000
  0.0000000000000000  0.0000000000000000  0.0000000000000000  0.0000000000000000  0.0000000000000000  0.0000000000000000  0.0000000000000000  0.0000000000000000  0.0000000000000000  0.0000000000000000  0.0000000000000000  0.0000000000000000  0.0000000000000000  0.0000000000000000  0.0000000000000000  0.0000000000000000  0.0000000000000000  0.0000000000000000  0.0000000000000000  0.0000000000000000  0.0000000000000000  0.0000000000000000  0.0000000000000000  0.0000000000000000  0.0000000000000000  0.0000000000000000  0.0000000000000000  0.0000000000000000
  0.0000000000000000  0.0000000000000000  0.0000000000000000  0.0000000000000000  0.0000000000000000  0.0000000000000000  0.0000000000000000  0.0000000000000000  0.0000000000000000  0.0000000000000000  0.0000000000000000  0.0000000000000000  0.0000000000000000  0.0000000000000000  0.0000000000000000  0.0000000000000000  0.0000000000000000  0.0000000000000000  0.0000000000000000  0.0000000000000000  0.0000000000000000  0.0000000000000000  0.0000000000000000  0.0000000000000000  0.0000000000000000  0.0000000000000000  0.0000000000000000  0.0000000000000000  0.0000000000000000
  0.0000000000000000  0.0000000000000000  0.0000000000000000  0.0000000000000000  0.0000000000000000  0.0000000000000000  0.0000000000000000  0.0000000000000000  0.0000000000000000  0.0000000000000000  0.0000000000000000  0.0000000000000000  0.0000000000000000  0.0000000000000000  0.0000000000000000  0.0000000000000000  0.0000000000000000  0.0000000000000000  0.0000000000000000  0.0000000000000000  0.0000000000000000  0.0000000000000000  0.0000000000000000  0.0000000000000000  0.0000000000000000  0.0000000000000000  0.0000000000000000  0.0000000000000000  0.0000000000000000  0.0000000000000000
  0.0000000000000000  0.0000000000000000  0.0000000000000000  0.0000000000000000  0.0000000000000000  0.0000000000000000  0.0000000000000000  0.0000000000000000  0.0000000000000000  0.0000000000000000  0.0000000000000000  0.0000000000000000  0.0000000000000000  0.0000000000000000  0.0000000000000000  0.0000000000000000  0.0000000000000000  0.0000000000000000  0.0000000000000000  0.0000000000000000  0.0000000000000000  0.0000000000000000  0.0000000000000000  0.0000000000000000  0.0000000000000000  0.0000000000000000  0.0000000000000000  0.0000000000000000  0.0000000000000000  0.0000000000000000  0.0000000000000000
  0.0000000000000000  0.0000000000000000  0.0000000000000000  0.0000000000000000  0.0000000000000000  0.0000000000000000  0.0000000000000000  0.0000000000000000  0.0000000000000000  0.0000000000000000  0.0000000000000000  0.0000000000000000  0.0000000000000000  0.0000000000000000  0.0000000000000000  0.0000000000000000  0.0000000000000000  0.0000000000000000  0.0000000000000000  0.0000000000000000  0.0000000000000000  0.0000000000000000  0.0000000000000000  0.0000000000000000  0.0000000000000000  0.0000000000000000  0.0000000000000000  0.0000000000000000  0.0000000000000000  0.0000000000000000  0.0000000000000000  0.0000000000000000
[...]
  0.0000000000000000  0.0000000000000000  0.0000000000000000  0.0000000000000000  0.0000000000000000  0.0000000000000000  0.0000000000000000  0.0000000000000000  0.0000000000000000 -0.0000000000000004  0.0000000000000000  0.0000000000000000  0.0000000000000006  0.0000000000000000  0.0000000000000000  0.0000000000000001  0.0000000000000000  0.0000000000000000  0.0000000000000001  0.0000000000000000  0.0000000000000000  0.0000000119149414  0.0000000000000000  0.0000000000000000  0.0000235525996614  0.0000000000000000  0.0000000000000000  0.0031347921152256  0.0000000000000000  0.0000000000000000  0.0057119485040238  0.0000000000000000  0.0000000000000000  0.0000000000000000  0.0000000000000000  0.0000000000000000  0.0000000000000000  0.0000000000000000  0.0000000000000000  0.0000000000000000  0.0000000000000000  0.0000000000000000  0.0000000000000000  0.0000000000000000 -0.0000001501718435  0.0000000000000000  0.0000000000000000  0.0000000000000000  0.0000000000000000 -0.0005145574629665  0.0000000000000000  0.0000000000000000  0.0000000000000000  0.0000000000000000  0.9999999999999990
  0.0000000000000000  0.0000000000000000  0.0000000000000000  0.0000000000000000  0.0000000000000000  0.0000000000000000  0.0000000000000000  0.0000000000000000  0.0000000000000000  0.0000000000000000  0.0000000000000000  0.0000000000000000  0.0000000000000000  0.0000000000000000  0.0000000000000000  0.0000000000000000  0.0000000000000000  0.0000000000000000  0.0000000000000000  0.0000000000000000  0.0000000000000000  0.0000000000000000  0.0000000000000000  0.0000000000000000  0.0000000000000000  0.0000000000000000  0.0000000000000000  0.0000000000000000  0.0000000000000000  0.0000000000000000  0.0000000000000000  0.0000000000000000  0.0000000000000000  0.0000000000000000  0.0000000000000000  0.0000000000000000  0.0000000000000000  0.0000000000000000  0.0000000000000000  0.0000000000000000  0.0000000000000000  0.0000000000000000  0.0000000000000000  0.0000000000000000  0.0000000000000000  0.0000000059900631  0.0000000000000000  0.0000000000000000  0.0000000000000000  0.0000000000000000  0.0000397689414574  0.0000000000000000  0.0000000000000000  0.0000000000000000  0.0000000000000000  1.0000000000000002
  0.0000000000000000  0.0000000000000000  0.0000000000000000  0.0000000000000000  0.0000000000000000  0.0000000000000000  0.0000000000000000  0.0000000000000000  0.0000000000000000  0.0000000000000000  0.0000000000000000  0.0000000000000000  0.0000000000000000 -0.0000000000000001  0.0000000000000000  0.0000000000000000 -0.0000000000000001  0.0000000000000000  0.0000000000000000  0.0000000000000000  0.0000000000000000  0.0000000000000000  0.0000000000000000  0.0000000000000000  0.0000000000000000  0.0000000000000000  0.0000000000000000  0.0000000000000000  0.0000000000000000  0.0000000000000000  0.0000000000000000  0.0000000000000000  0.0000000000000000  0.0000000000000000  0.0000000000000000  0.0000000000000000  0.0000000000000000  0.0000000000000000  0.0000000000000000  0.0000000000000000  0.0000000000000000  0.0000000000000000  0.0000000000000000  0.0000000000000000  0.0000000000000000  0.0000000000000000  0.0000000059900631  0.0000000000000000  0.0000000000000000  0.0000000000000000  0.0000000000000000  0.0000397689414574 -0.0000000000000001  0.0000000000000000  0.0000000000000000  0.0000000000000000  0.9999999999999994
  0.0000000000000000  0.0000000000000000  0.0000000000000000  0.0000000000000000  0.0000000000000000  0.0000000000000000  0.0000000000000000  0.0000000000000000 -0.0000000000000001  0.0000000000000000  0.0000000000000000 -0.0000000000000003  0.0000000000000000  0.0000000000000000 -0.0000000000000001  0.0000000000000000  0.0000000000000000 -0.0000000000000001  0.0000000000000000  0.0000000000000000 -0.0000000000000000  0.0000000000000000  0.0000000000000000 -0.0000000000000000  0.0000000000000000  0.0000000000000000 -0.0000000000000000  0.0000000000000000  0.0000000000000000 -0.0000000000000000  0.0000000000000000  0.0000000000000000  0.0000000000000000  0.0000000000000000  0.0000000000000000  0.0000000000000000  0.0000000000000000  0.0000000000000000  0.0000000000000000  0.0000000000000000  0.0000000000000000  0.0000000000000000  0.0000000000000000  0.0000000000000000  0.0000000000000000  0.0000000000000000  0.0000000000000000  0.0000000000000000  0.0000000000000000  0.0000000000000000  0.0000000000000000  0.0000000000000000  0.0000000000000000 -0.0000000000000004  0.0000000000000000  0.0000000000000000  0.0000000000000000  0.9999999999999994
  0.0000000000000000  0.0000000000000000  0.0000000000000000  0.0000000000000000  0.0000000000000000  0.0000000000000000  0.0000000000000000  0.0000000000000000  0.0000000000000000 -0.0000000000000001  0.0000000000000000  0.0000000000000000 -0.0000000000000002  0.0000000000000000  0.0000000000000000 -0.0000000000000001  0.0000000000000000  0.0000000000000000 -0.0000000000000001  0.0000000000000000  0.0000000000000000 -0.0000000000000000  0.0000000000000000  0.0000000000000000 -0.0000000000000000  0.0000000000000000  0.0000000000000000 -0.0000000000000000  0.0000000000000000  0.0000000000000000 -0.0000000000000000  0.0000000000000000  0.0000000000000000  0.0000000000000000  0.0000000000000000  0.0000000000000000  0.0000000000000000  0.0000000000000000  0.0000000000000000  0.0000000000000000  0.0000000000000000  0.0000000000000000  0.0000000000000000  0.0000000000000000  0.0000000000000000  0.0000000000000000  0.0000000000000000  0.0000000000000000  0.0000000000000000  0.0000000000000000  0.0000000000000000  0.0000000000000000  0.0000000000000000  0.0000000000000000 -0.0000000000000004  0.0000000000000000  0.0000000000000000  0.0000000000000000  1.0000000000000000
 -0.0000001490441080 -0.0002848626042110 -0.0054016000622188 -0.0031329961823524  0.0000000000000000  0.0000000000000000  0.0000000000000000  0.0000000000000000  0.0000000000000000  0.0000000000000000 -0.0000001965074417  0.0000000000000000  0.0000000000000000 -0.0002229774994694  0.0000000000000000  0.0000000000000000 -0.0116151002211068  0.0000000000000000  0.0000000000000000 -0.0022493305044733  0.0000000000000000  0.0000000000000000  0.0000000000000002  0.0000000000000000  0.0000000000000000 -0.0000000000000009  0.0000000000000000  0.0000000000000000 -0.0000000000000001  0.0000000000000000  0.0000000000000000 -0.0000000000000001 -0.0000013331713948  0.0000000000000000  0.0000000000000000  0.0000000000000000  0.0000000000000000 -0.0022445391846369  0.0000000000000000  0.0000000000000000  0.0000000000000000  0.0000000000000000  0.0000000000000000  0.0000000000000000  0.0000000000000000  0.0000000000000000  0.0000000000000000  0.0000000000000000  0.0000000000000000  0.0000000000000000  0.0000000000000000  0.0000000000000000 -0.0000565710456071  0.0000000000000000  0.0000000000000000  0.0000000000000000  0.0000000000000000  0.0000000000000000  0.0000000000000000  1.0000000000000022
  0.0000000000000000  0.0000000000000000  0.0000000000000000  0.0000000000000000  0.0000000000000000  0.0000000000000000  0.0000000000000000  0.0000000000000000  0.0000000119149414  0.0000000000000000  0.0000000000000000  0.0000235525996614  0.0000000000000000  0.0000000000000000  0.0031347921152256  0.0000000000000000  0.0000000000000000  0.0057119485040238  0.0000000000000000  0.0000000000000000 -0.0000000000000004  0.0000000000000000  0.0000000000000000  0.0000000000000004  0.0000000000000000  0.0000000000000000  0.0000000000000000  0.0000000000000000  0.0000000000000000  0.0000000000000001  0.0000000000000000  0.0000000000000000  0.0000000000000000  0.0000001501718435  0.0000000000000000  0.0000000000000000  0.0000000000000000  0.0000000000000000  0.0005145574629665  0.0000000000000000  0.0000000000000000  0.0000000000000000  0.0000000000000000  0.0000000000000000  0.0000000000000000  0.0000000000000000  0.0000000000000000  0.0000000000000000  0.0000000000000000  0.0000000000000000  0.0000000000000000  0.0000000000000000  0.0000000000000000  0.0000112886711568  0.0000000000000000  0.0000000000000000  0.0000000000000000 -0.0000000000000000  0.0000000000000000  0.0000000000000000  0.9999999999999989
  0.0000000000000000  0.0000000000000000  0.0000000000000000  0.0000000000000000  0.0000000000000000  0.0000000000000000  0.0000000000000000  0.0000000000000000  0.0000000000000000  0.0000000119149414  0.0000000000000000  0.0000000000000000  0.0000235525996614  0.0000000000000000  0.0000000000000000  0.0031347921152256  0.0000000000000000  0.0000000000000000  0.0057119485040238  0.0000000000000000  0.0000000000000000 -0.0000000000000004  0.0000000000000000  0.0000000000000000  0.0000000000000006  0.0000000000000000  0.0000000000000000  0.0000000000000001  0.0000000000000000  0.0000000000000000  0.0000000000000001  0.0000000000000000  0.0000000000000000  0.0000000000000000  0.0000001501718435  0.0000000000000000  0.0000000000000000  0.0000000000000000  0.0000000000000000  0.0005145574629665  0.0000000000000000  0.0000000000000000  0.0000000000000000  0.0000000000000000  0.0000000000000000  0.0000000000000000  0.0000000000000000  0.0000000000000000  0.0000000000000000  0.0000000000000000  0.0000000000000000  0.0000000000000000  0.0000000000000000  0.0000000000000000  0.0000112886711568  0.0000000000000000  0.0000000000000000  0.0000000000000000 -0.0000000000000000  0.0000000000000000  0.0000000000000000  0.9999999999999990
  0.0000000000000000  0.0000000000000000  0.0000000000000000  0.0000000000000000  0.0000000000000000  0.0000000000000000  0.0000000000000000  0.0000000000000000  0.0000000000000000  0.0000000000000000  0.0000000000000000  0.0000000000000000  0.0000000000000000  0.0000000000000000  0.0000000000000000  0.0000000000000000  0.0000000000000000  0.0000000000000000  0.0000000000000000  0.0000000000000000  0.0000000000000000  0.0000000000000000  0.0000000000000000  0.0000000000000000  0.0000000000000000  0.0000000000000000  0.0000000000000000  0.0000000000000000  0.0000000000000000  0.0000000000000000  0.0000000000000000  0.0000000000000000  0.0000000000000000  0.0000000000000000  0.0000000000000000 -0.0000000059900631  0.0000000000000000  0.0000000000000000  0.0000000000000000  0.0000000000000000 -0.0000397689414574  0.0000000000000000  0.0000000000000000  0.0000000000000000  0.0000000000000000  0.0000000000000000  0.0000000000000000  0.0000000000000000  0.0000000000000000  0.0000000000000000  0.0000000000000000  0.0000000000000000  0.0000000000000000  0.0000000000000000  0.0000000000000000 -0.0000008844076003  0.0000000000000000  0.0000000000000000  0.0000000000000000  0.0000000000000000  0.0000000000000000  0.0000000000000000  1.0000000000000002
  0.0000000000000000  0.0000000000000000  0.0000000000000000  0.0000000000000000  0.0000000000000000  0.0000000000000000  0.0000000000000000  0.0000000000000000  0.0000000000000000  0.0000000000000000  0.0000000000000000  0.0000000000000000  0.0000000000000000  0.0000000000000000  0.0000000000000000  0.0000000000000000  0.0000000000000000  0.0000000000000000  0.0000000000000000  0.0000000000000000  0.0000000000000000  0.0000000000000000  0.0000000000000000  0.0000000000000000  0.0000000000000000 -0.0000000000000001  0.0000000000000000  0.0000000000000000 -0.0000000000000001  0.0000000000000000  0.0000000000000000  0.0000000000000000 -0.0000000000000000  0.0000000000000000  0.0000000000000000  0.0000000000000000 -0.0000000059900631  0.0000000000000000  0.0000000000000000  0.0000000000000000  0.0000000000000000 -0.0000397689414574  0.0000000000000000  0.0000000000000000  0.0000000000000000  0.0000000000000000  0.0000000000000000  0.0000000000000000  0.0000000000000000  0.0000000000000000  0.0000000000000000  0.0000000000000000  0.0000000000000000  0.0000000000000000  0.0000000000000000  0.0000000000000000 -0.0000008844076003  0.0000000000000000  0.0000000000000000 -0.0000000000000001  0.0000000000000000  0.0000000000000000  0.0000000000000000  0.9999999999999994
  0.0000000000000000  0.0000000000000000  0.0000000000000000  0.0000000000000000  0.0000000000000000  0.0000000000000000  0.0000000000000000  0.0000000000000000 -0.0000000000000000  0.0000000000000000  0.0000000000000000 -0.0000000000000000  0.0000000000000000  0.0000000000000000 -0.0000000000000000  0.0000000000000000  0.0000000000000000 -0.0000000000000000  0.0000000000000000  0.0000000000000000 -0.0000000000000001  0.0000000000000000  0.0000000000000000 -0.0000000000000003  0.0000000000000000  0.0000000000000000 -0.0000000000000001  0.0000000000000000  0.0000000000000000 -0.0000000000000001  0.0000000000000000  0.0000000000000000  0.0000000000000000 -0.0000000000000000  0.0000000000000000  0.0000000000000000  0.0000000000000000  0.0000000000000000 -0.0000000000000000  0.0000000000000000  0.0000000000000000  0.0000000000000000  0.0000000000000000  0.0000000000000000  0.0000000000000000  0.0000000000000000  0.0000000000000000  0.0000000000000000  0.0000000000000000  0.0000000000000000  0.0000000000000000  0.0000000000000000  0.0000000000000000 -0.0000000000000000  0.0000000000000000  0.0000000000000000  0.0000000000000000  0.0000000260694945  0.0000000000000000  0.0000000000000000 -0.0000000000000004  0.0000000000000000  0.0000000000000000  0.0000000000000000  0.9999999999999994
  0.0000000000000000  0.0000000000000000  0.0000000000000000  0.0000000000000000  0.0000000000000000  0.0000000000000000  0.0000000000000000  0.0000000000000000  0.0000000000000000 -0.0000000000000000  0.0000000000000000  0.0000000000000000 -0.0000000000000000  0.0000000000000000  0.0000000000000000 -0.0000000000000000  0.0000000000000000  0.0000000000000000 -0.0000000000000000  0.0000000000000000  0.0000000000000000 -0.0000000000000001  0.0000000000000000  0.0000000000000000 -0.0000000000000002  0.0000000000000000  0.0000000000000000 -0.0000000000000001  0.0000000000000000  0.0000000000000000 -0.0000000000000001  0.0000000000000000  0.0000000000000000  0.0000000000000000 -0.0000000000000000  0.0000000000000000  0.0000000000000000  0.0000000000000000  0.0000000000000000 -0.0000000000000000  0.0000000000000000  0.0000000000000000  0.0000000000000000  0.0000000000000000  0.0000000000000000  0.0000000000000000  0.0000000000000000  0.0000000000000000  0.0000000000000000  0.0000000000000000  0.0000000000000000  0.0000000000000000  0.0000000000000000  0.0000000000000000 -0.0000000000000000  0.0000000000000000  0.0000000000000000  0.0000000000000000  0.0000000260694945  0.0000000000000000  0.0000000000000000 -0.0000000000000004  0.0000000000000000  0.0000000000000000  0.0000000000000000  1.0000000000000000
 END


 total number of electrons =     0.99999999999996

 => charge of molecule     =     1.00000000000004




------------------------------------------------------------------------

   Population Analysis Based On Occupation Numbers (PABOON)

------------------------------------------------------------------------

 
 CHOICE OF MAOs:
MAOs are selected due to their eigenvalues; determination of their number: 
 automatic; mixing options fix and eigenvalue thr=0.1
 
 ... and this is your MAO selection:
 (atoms for which the two selection methods (fixed/threshold) yield
 different numbers of MAOs are marked by an *)
 
   atom   nr. of MAOs      selection criterion
    1 h          1               eig
    2 h          1               eig
 


************************************************************************
*                                                                      *
*                     unassigned charge =  -0.000000                   *
*                                                                      *
************************************************************************



************************************************************************
*                                                                      *
*                       hypervalent contributions                      *
*                                                                      *
************************************************************************

              h    1           -0.000000
              h    2           -0.000000


************************************************************************
*                                                                      *
*                        shared electron numbers                       *
*                                                                      *
************************************************************************



 TWO center shared electron numbers ge 0.1000E-01 :

  shared electron number for the pair       1 h  -   2 h   =     0.1341


************************************************************************
*                                                                      *
*              atomic charges with multicenter corrections             *
*              AS RESULTING FROM 2-CENTER SEN CONTRIBUTIONS            *
*                                                                      *
************************************************************************

                        -------------------------
                           atom   |     charge   
                        -------------------------
                            1 h   |    0.5000
                            2 h   |    0.5000
                        -------------------------


************************************************************************
*                                                                      *
*              atomic charges with multicenter corrections             *
*                                                                      *
************************************************************************

                        -------------------------
                           atom   |     charge   
                        -------------------------
                            1 h   |    0.5000
                            2 h   |    0.5000
                        -------------------------

 
 moments (from total density versus population analysis)
 <charge> =             1.000000            1.000000
 <xx  >   =            -1.041392            0.000000
 <yy  >   =            -1.041392            0.000000
 <zz  >   =             6.602782            6.250000
 <xy  >   =             0.000000            0.000000
 <xz  >   =             0.000000            0.000000
 <yz  >   =            -0.000000            0.000000

 
 
 ==============================================================================
                      CALCULATION OF QUANTITIES ON GRID
 ==============================================================================
 
 
 output format: v1,v2,f(v1,v2)
 output format: v1,v2,f(v1,v2)
 Reasonable settings for gnuplot contour plots are in file 'gnuset'.
 Call gnuplot and use it by typing: 'load "gnuset"'
 ... and then follow further instructions ...
 
 
 quantities to be calculated are 
 density                     file: ..d.vec
 
 calculation at a plane of  500*  201 points
 
 origin at            0.00000        0.00000        0.00000
 
 normalised grid vectors:
                        x              y              z
  1. vector:         0.00000        0.00000        1.00000
  2. vector:         0.00000        1.00000        0.00000
 
                     minimum       increment       maximum
  1. vector:        -8.00000        0.03206        8.00000
  2. vector:        -5.00000        0.05000        5.00000
 
 
 ==============================================================================
 


    ------------------------------------------------------------------------
         total  cpu-time :   2.13 seconds
         total wall-time :   3.65 seconds
    ------------------------------------------------------------------------


   ****  dscf : all done  ****


    2015-03-28 18:37:07.476 

