 operating system is UNIX !
 hostname is         gplogin1.local

 dscf (gplogin1.local) : TURBOMOLE V6.6( ) 18 Mar 2015 at 17:33:10
 Copyright (C) 2015 TURBOMOLE GmbH, Karlsruhe


    2015-03-28 18:36:52.040 



                             d s c f - program

                   idea & directorship : reinhart ahlrichs
                   program development : marco haeser
                                         michael baer
                           dft version : oliver treutler


                          quantum chemistry group
                          universitaet  karlsruhe
                                  germany




                          References             
                                                 
          TURBOMOLE:                             
              R. Ahlrichs, M. Baer, M. Haeser, H. Horn, and
              C. Koelmel
              Electronic structure calculations on workstation
              computers: the program system TURBOMOLE
              Chem. Phys. Lett. 162: 165 (1989)
          Density Functional:                              
              O. Treutler and R. Ahlrichs                      
              Efficient Molecular Numerical Integration Schemes
              J. Chem. Phys. 102: 346 (1995)                   
          Parallel Version:                                
              Performance of parallel TURBOMOLE for Density    
              Functional Calculations                          
              M. v. Arnim and R. Ahlrichs                      
              J. Comp. Chem. 19: 1746 (1998)                   
                                         



 UHF mode switched on !


              +--------------------------------------------------+
              | Atomic coordinate, charge and isotop information |
              +--------------------------------------------------+

                    atomic coordinates            atom    charge  isotop
          0.00000000    0.00000000   -0.50000000    h      1.000     0
          0.00000000    0.00000000    0.50000000    h      1.000     0
 
       center of nuclear mass  :    0.00000000    0.00000000    0.00000000
       center of nuclear charge:    0.00000000    0.00000000    0.00000000

   *************************************************************************
   h-h/1.0                                                                  
   *************************************************************************



              +--------------------------------------------------+
              |               basis set information              |
              +--------------------------------------------------+

              we will work with the 1s 3p 5d 7f 9g ... basis set
              ...i.e. with spherical basis functions...

   type   atoms  prim   cont   basis
   ---------------------------------------------------------------------------
    h        2     36     33   def2-QZVPPD   [4s4p2d1f|7s4p2d1f]
   ---------------------------------------------------------------------------
   total:    2     72     66
   ---------------------------------------------------------------------------

   total number of primitive shells          :   14
   total number of contracted shells         :   22
   total number of cartesian basis functions :   76
   total number of SCF-basis functions       :   66


 integral neglect threshold       :  0.44E-11
 integral storage threshold THIZE :  0.10E-04
 integral storage threshold THIME :         5


 symmetry group of the molecule :   c1 

 the group has the following generators :
   c1(z)

    1 symmetry operations found

 there are 1 real representations :   a   

 maximum number of shells which are related by symmetry :  1

  missing beta occupation number declaration 

    mo occupation :
   irrep   mo's   occupied
    a       66        1
 
 number of basis functions   :           66
 number of occupied orbitals :            1
 

          ------------------------
          nuclear repulsion energy  :   1.00000000000    
          ------------------------

 
          -----------------
          -S,T+V- integrals
          -----------------

 1e-integrals will be neglected if expon. factor < 0.439732E-12
 
   Difference densities algorithm switched on.
   The maximal number of linear combinations of
   difference densities is          20 .

 automatic virtual orbital shift switched on 
      shift if e(lumo)-e(homo) < 0.10000000    


 DIIS switched on: error vector is FDS-SDF
 Max. Iterations for DIIS is     :   5
 DIIS matrix (see manual) 
    Scaling factor of diagonals  :  1.200
    threshold for scaling factor :  0.000

 scf convergence criterion : increment of total energy < .1000000D-07
                  and increment of one-electron energy < .1000000D-04


 <geterg> : there is no data group $energy 

  MOs are in ASCII format !


 reading orbital data $uhfmo_alpha  from file alpha . 

 orbital characterization : expanded
 

 reading orbital data $uhfmo_beta  from file beta . 

 orbital characterization : expanded
 
 mo provided and orthogonalized by Cholesky decomposition
 mo provided and orthogonalized by Cholesky decomposition

 DSCF restart information will be dumped onto file alpha

 
                                              current damping :  1.000
 ITERATION  ENERGY          1e-ENERGY        2e-ENERGY     NORM[dD(SAO)]  TOL
   1  -.28834506836385    -1.2883450684    0.17347234760E-170.000D+00 0.439D-11
          max. resid. norm for Fia-block=  4.518D-01 for orbital      1a    alpha
          max. resid. fock norm         =  6.019D+00 for orbital     51a    beta 
          Delta Eig. =   201.7748234603 eV 
 
                                              current damping :  0.950
 ITERATION  ENERGY          1e-ENERGY        2e-ENERGY     NORM[dD(SAO)]  TOL
   2  -.36320381081669    -1.3632038108    0.17347234760E-170.620D-01 0.300D-11
          Norm of current diis error:  1.0627    
          max. resid. norm for Fia-block=  3.476D-01 for orbital      1a    alpha
          max. resid. fock norm         =  3.476D-01 for orbital      1a    alpha
          Delta Eig. =   105.2082133839 eV 
 
                                              current damping :  0.900
 ITERATION  ENERGY          1e-ENERGY        2e-ENERGY     NORM[dD(SAO)]  TOL
   3  -.41430848512074    -1.4143084851    0.17347234760E-170.339D-01 0.200D-11
          Norm of current diis error: 0.68408    
          max. resid. norm for Fia-block=  2.554D-01 for orbital      1a    alpha
          max. resid. fock norm         =  2.554D-01 for orbital      1a    alpha
          Delta Eig. =    54.0080281110 eV 
 
                                              current damping :  0.950
 ITERATION  ENERGY          1e-ENERGY        2e-ENERGY     NORM[dD(SAO)]  TOL
   4  -.44008201318510    -1.4400820132    0.69388939039E-170.109D-01 0.159D-11
          Norm of current diis error: 0.37652    
          max. resid. norm for Fia-block=  1.489D-01 for orbital      1a    alpha
          max. resid. fock norm         =  1.489D-01 for orbital      1a    alpha
          Delta Eig. =    25.2924154118 eV 
 
                                              current damping :  1.000
 ITERATION  ENERGY          1e-ENERGY        2e-ENERGY     NORM[dD(SAO)]  TOL
   5  -.44841522288105    -1.4484152229     0.0000000000    0.101D-02 0.141D-11
          Norm of current diis error: 0.19731    
          max. resid. norm for Fia-block=  7.973D-02 for orbital      1a    alpha
          max. resid. fock norm         =  7.973D-02 for orbital      1a    alpha
 mo-orthogonalization: Cholesky decomposition
          Delta Eig. =    12.0450334522 eV 
 
                                              current damping :  1.050
 ITERATION  ENERGY          1e-ENERGY        2e-ENERGY     NORM[dD(SAO)]  TOL
   6  -.45076578673378    -1.4507657867    0.20816681712E-160.133D-03 0.131D-11
          Norm of current diis error: 0.10313    
          max. resid. norm for Fia-block=  4.212D-02 for orbital      1a    alpha
          max. resid. fock norm         =  4.212D-02 for orbital      1a    alpha
          Delta Eig. =     5.8588009260 eV 
 
                                              current damping :  1.100
 ITERATION  ENERGY          1e-ENERGY        2e-ENERGY     NORM[dD(SAO)]  TOL
   7  -.45141617432779    -1.4514161743    -.17347234760E-160.271D-04 0.124D-11
          Norm of current diis error: 0.54569E-01
          max. resid. norm for Fia-block=  2.242D-02 for orbital      1a    alpha
          max. resid. fock norm         =  2.242D-02 for orbital      1a    alpha
          Delta Eig. =     2.9193214938 eV 
 
                                              current damping :  1.150
 ITERATION  ENERGY          1e-ENERGY        2e-ENERGY     NORM[dD(SAO)]  TOL
   8  -.45159854286404    -1.4515985429    -.69388939039E-170.114D-04 0.119D-11
          Norm of current diis error: 0.29344E-01
          max. resid. norm for Fia-block=  1.210D-02 for orbital      1a    alpha
          max. resid. fock norm         =  1.210D-02 for orbital      1a    alpha
          Delta Eig. =     1.4904506264 eV 
 
                                              current damping :  1.000
 ITERATION  ENERGY          1e-ENERGY        2e-ENERGY     NORM[dD(SAO)]  TOL
   9  -.45165101449678    -1.4516510145    0.69388939039E-170.704D-06 0.116D-11
          Norm of current diis error: 0.16053E-01
          max. resid. norm for Fia-block=  6.637D-03 for orbital      1a    alpha
          max. resid. fock norm         =  6.637D-03 for orbital      1a    alpha
          Delta Eig. =     0.8565571001 eV 
 
                                              current damping :  0.850
 ITERATION  ENERGY          1e-ENERGY        2e-ENERGY     NORM[dD(SAO)]  TOL
  10  -.45166764084339    -1.4516676408    0.17694179455E-150.484D-06 0.112D-11
          Norm of current diis error: 0.82246E-02
          max. resid. norm for Fia-block=  3.408D-03 for orbital      1a    alpha
          max. resid. fock norm         =  3.408D-03 for orbital      1a    alpha
 mo-orthogonalization: Cholesky decomposition
          Delta Eig. =     0.4634373961 eV 
 
                                              current damping :  0.900
 ITERATION  ENERGY          1e-ENERGY        2e-ENERGY     NORM[dD(SAO)]  TOL
  11  -.45167225643061    -1.4516722564    -.23269580707E-130.552D-07 0.108D-11
          Norm of current diis error: 0.38812E-02
          max. resid. norm for Fia-block=  1.612D-03 for orbital      1a    alpha
          max. resid. fock norm         =  1.612D-03 for orbital      1a    alpha
          Delta Eig. =     0.2077644467 eV 
 
                                              current damping :  0.950
 ITERATION  ENERGY          1e-ENERGY        2e-ENERGY     NORM[dD(SAO)]  TOL
  12  -.45167326916759    -1.4516732692    0.19795623474E-120.563D-08 0.104D-11
          Norm of current diis error: 0.18820E-02
          max. resid. norm for Fia-block=  7.820D-04 for orbital      1a    alpha
          max. resid. fock norm         =  7.820D-04 for orbital      1a    alpha
          Delta Eig. =     0.0961096352 eV 
 
                                              current damping :  0.800
 ITERATION  ENERGY          1e-ENERGY        2e-ENERGY     NORM[dD(SAO)]  TOL
  13  -.45167350327263    -1.4516735033    0.71272848734E-120.271D-08 0.100D-11
          Norm of current diis error: 0.93689E-03
          max. resid. norm for Fia-block=  3.892D-04 for orbital      1a    alpha
          max. resid. fock norm         =  3.892D-04 for orbital      1a    alpha
          Delta Eig. =     0.0508447497 eV 
 
                                              current damping :  0.850
 ITERATION  ENERGY          1e-ENERGY        2e-ENERGY     NORM[dD(SAO)]  TOL
  14  -.45167356427823    -1.4516735643    0.13877787808E-160.269D-02 0.125D-11
          Norm of current diis error: 0.42718E-03
          max. resid. norm for Fia-block=  1.775D-04 for orbital      1a    alpha
          max. resid. fock norm         =  1.775D-04 for orbital      1a    alpha
          Delta Eig. =     0.0220572764 eV 
 
                                              current damping :  0.700
 ITERATION  ENERGY          1e-ENERGY        2e-ENERGY     NORM[dD(SAO)]  TOL
  15  -.45167357671432    -1.4516735767    -.69388939039E-170.521D-05 0.125D-11
          Norm of current diis error: 0.20089E-03
          max. resid. norm for Fia-block=  8.344D-05 for orbital      1a    alpha
          max. resid. fock norm         =  8.344D-05 for orbital      1a    alpha
 mo-orthogonalization: Cholesky decomposition
          Delta Eig. =     0.0110621791 eV 

 ENERGY CONVERGED !

 
                                              current damping :  0.750
 ITERATION  ENERGY          1e-ENERGY        2e-ENERGY     NORM[dD(SAO)]  TOL
  16  -.45167357960264    -1.4516735796    0.13877787808E-160.598D-05 0.125D-11
          max. resid. norm for Fia-block=  2.623D-05 for orbital      1a    alpha
          max. resid. fock norm         =  2.623D-05 for orbital      1a    alpha
 Density matrix in CAO:
 
 Print from pmat
 
 Lower triangle of alpha RDM in AO basis:
  0.0240703134106030
  0.0438088890158951  0.0797338499116338
  0.0211669242122584  0.0385246098712704  0.0186137451957783
 -0.0000251802740035 -0.0000458290596550 -0.0000221430000675  0.0000000263414185
  0.0240703134097906  0.0438088890144164  0.0211669242115439 -0.0000251802740026  0.0240703134089782
  0.0438088888691808  0.0797338496446083  0.0385246097422530 -0.0000458290595015  0.0438088888677021  0.0797338493775828
  0.0211669239885381  0.0385246094640909  0.0186137449990434 -0.0000221429998335  0.0211669239878236  0.0385246093350735  0.0186137448023085
 -0.0000251812379026 -0.0000458308139882 -0.0000221438477000  0.0000000263424268 -0.0000251812379018 -0.0000458308138347 -0.0000221438474660  0.0000000263434352
  0.0000000000000018  0.0000000000000033  0.0000000000000016 -0.0000000000000000  0.0000000000000018  0.0000000000000033  0.0000000000000016 -0.0000000000000000  0.0000000000000000
  0.0000000000000010  0.0000000000000018  0.0000000000000009 -0.0000000000000000  0.0000000000000010  0.0000000000000018  0.0000000000000009 -0.0000000000000000  0.0000000000000000  0.0000000000000000
  0.0018057924981634  0.0032866112621088  0.0015879757068245 -0.0000018890634751  0.0018057924981025  0.0032866112511021  0.0015879756900407 -0.0000018891357883  0.0000000000000001  0.0000000000000001  0.0001354733729801
  0.0000000000000006  0.0000000000000010  0.0000000000000005 -0.0000000000000000  0.0000000000000006  0.0000000000000010  0.0000000000000005 -0.0000000000000000  0.0000000000000000  0.0000000000000000  0.0000000000000000  0.0000000000000000
  0.0000000000000142  0.0000000000000258  0.0000000000000125 -0.0000000000000000  0.0000000000000142  0.0000000000000258  0.0000000000000125 -0.0000000000000000  0.0000000000000000  0.0000000000000000  0.0000000000000011  0.0000000000000000  0.0000000000000000
  0.0046988138224630  0.0085520204802965  0.0041320374342851 -0.0000049154914405  0.0046988138223044  0.0085520204516562  0.0041320373906122 -0.0000049156796052  0.0000000000000004  0.0000000000000002  0.0003525123502186  0.0000000000000001  0.0000000000000028  0.0009172648050541
 -0.0000000000000038 -0.0000000000000069 -0.0000000000000033  0.0000000000000000 -0.0000000000000038 -0.0000000000000069 -0.0000000000000033  0.0000000000000000 -0.0000000000000000 -0.0000000000000000 -0.0000000000000003 -0.0000000000000000 -0.0000000000000000 -0.0000000000000007  0.0000000000000000
  0.0000000000000090  0.0000000000000163  0.0000000000000079 -0.0000000000000000  0.0000000000000090  0.0000000000000163  0.0000000000000079 -0.0000000000000000  0.0000000000000000  0.0000000000000000  0.0000000000000007  0.0000000000000000  0.0000000000000000  0.0000000000000018 -0.0000000000000000  0.0000000000000000
  0.0036061793518750  0.0065633840450168  0.0031711978043180 -0.0000037724720338  0.0036061793517533  0.0065633840230363  0.0031711977708005 -0.0000037726164438  0.0000000000000003  0.0000000000000001  0.0002705412060725  0.0000000000000001  0.0000000000000021  0.0007039694538172 -0.0000000000000006  0.0000000000000013  0.0005402725463542
  0.0000000000000048  0.0000000000000087  0.0000000000000042 -0.0000000000000000  0.0000000000000048  0.0000000000000087  0.0000000000000042 -0.0000000000000000  0.0000000000000000  0.0000000000000000  0.0000000000000004  0.0000000000000000  0.0000000000000000  0.0000000000000009 -0.0000000000000000  0.0000000000000000  0.0000000000000007  0.0000000000000000
  0.0000000000000025  0.0000000000000045  0.0000000000000022 -0.0000000000000000  0.0000000000000025  0.0000000000000045  0.0000000000000022 -0.0000000000000000  0.0000000000000000  0.0000000000000000  0.0000000000000002  0.0000000000000000  0.0000000000000000  0.0000000000000005 -0.0000000000000000  0.0000000000000000  0.0000000000000004  0.0000000000000000  0.0000000000000000
 -0.0006696270043762 -0.0012187467033080 -0.0005888558163048  0.0000007005056878 -0.0006696270043536 -0.0012187466992265 -0.0005888558100810  0.0000007005325031 -0.0000000000000001 -0.0000000000000000 -0.0000502364634994 -0.0000000000000000 -0.0000000000000004 -0.0001307192212409  0.0000000000000001 -0.0000000000000002 -0.0001003225440170 -0.0000000000000001 -0.0000000000000001  0.0000186287696941
 -0.0000000000000024 -0.0000000000000043 -0.0000000000000021  0.0000000000000000 -0.0000000000000024 -0.0000000000000043 -0.0000000000000021  0.0000000000000000 -0.0000000000000000 -0.0000000000000000 -0.0000000000000002 -0.0000000000000000 -0.0000000000000000 -0.0000000000000005  0.0000000000000000 -0.0000000000000000 -0.0000000000000004 -0.0000000000000000 -0.0000000000000000  0.0000000000000001  0.0000000000000000
 -0.0000000000000010 -0.0000000000000018 -0.0000000000000009  0.0000000000000000 -0.0000000000000010 -0.0000000000000018 -0.0000000000000009  0.0000000000000000 -0.0000000000000000 -0.0000000000000000 -0.0000000000000001 -0.0000000000000000 -0.0000000000000000 -0.0000000000000002  0.0000000000000000 -0.0000000000000000 -0.0000000000000001 -0.0000000000000000 -0.0000000000000000  0.0000000000000000  0.0000000000000000  0.0000000000000000
 -0.0018057924995926 -0.0032866112647100 -0.0015879757080813  0.0000018890634766 -0.0018057924995317 -0.0032866112537033 -0.0015879756912975  0.0000018891357898 -0.0000000000000001 -0.0000000000000001 -0.0001354733730874 -0.0000000000000000 -0.0000000000000011 -0.0003525123504976  0.0000000000000003 -0.0000000000000007 -0.0002705412062866 -0.0000000000000004 -0.0000000000000002  0.0000502364635391  0.0000000000000002  0.0000000000000001  0.0001354733731946
 -0.0000000000000005 -0.0000000000000010 -0.0000000000000005  0.0000000000000000 -0.0000000000000005 -0.0000000000000010 -0.0000000000000005  0.0000000000000000 -0.0000000000000000 -0.0000000000000000 -0.0000000000000000 -0.0000000000000000 -0.0000000000000000 -0.0000000000000001  0.0000000000000000 -0.0000000000000000 -0.0000000000000001 -0.0000000000000000 -0.0000000000000000  0.0000000000000000  0.0000000000000000  0.0000000000000000  0.0000000000000000  0.0000000000000000
 -0.0000000000000114 -0.0000000000000207 -0.0000000000000100  0.0000000000000000 -0.0000000000000114 -0.0000000000000207 -0.0000000000000100  0.0000000000000000 -0.0000000000000000 -0.0000000000000000 -0.0000000000000009 -0.0000000000000000 -0.0000000000000000 -0.0000000000000022  0.0000000000000000 -0.0000000000000000 -0.0000000000000017 -0.0000000000000000 -0.0000000000000000  0.0000000000000003  0.0000000000000000  0.0000000000000000  0.0000000000000009  0.0000000000000000  0.0000000000000000
 -0.0046988137780412 -0.0085520203994473 -0.0041320373952215  0.0000049154913941 -0.0046988137778826 -0.0085520203708069 -0.0041320373515487  0.0000049156795587 -0.0000000000000004 -0.0000000000000002 -0.0003525123468860 -0.0000000000000001 -0.0000000000000028 -0.0009172647963825  0.0000000000000007 -0.0000000000000018 -0.0007039694471620 -0.0000000000000009 -0.0000000000000005  0.0001307192200051  0.0000000000000005  0.0000000000000002  0.0003525123471650  0.0000000000000001  0.0000000000000022  0.0009172647877108
  0.0000000000000051  0.0000000000000092  0.0000000000000045 -0.0000000000000000  0.0000000000000051  0.0000000000000092  0.0000000000000045 -0.0000000000000000  0.0000000000000000  0.0000000000000000  0.0000000000000004  0.0000000000000000  0.0000000000000000  0.0000000000000010 -0.0000000000000000  0.0000000000000000  0.0000000000000008  0.0000000000000000  0.0000000000000000 -0.0000000000000001 -0.0000000000000000 -0.0000000000000000 -0.0000000000000004 -0.0000000000000000 -0.0000000000000000 -0.0000000000000010  0.0000000000000000
 -0.0000000000000127 -0.0000000000000231 -0.0000000000000111  0.0000000000000000 -0.0000000000000127 -0.0000000000000231 -0.0000000000000111  0.0000000000000000 -0.0000000000000000 -0.0000000000000000 -0.0000000000000010 -0.0000000000000000 -0.0000000000000000 -0.0000000000000025  0.0000000000000000 -0.0000000000000000 -0.0000000000000019 -0.0000000000000000 -0.0000000000000000  0.0000000000000004  0.0000000000000000  0.0000000000000000  0.0000000000000010  0.0000000000000000  0.0000000000000000  0.0000000000000025 -0.0000000000000000  0.0000000000000000
 -0.0036061792853627 -0.0065633839239617 -0.0031711977458284  0.0000037724719642 -0.0036061792852409 -0.0065633839019812 -0.0031711977123109  0.0000037726163742 -0.0000000000000003 -0.0000000000000001 -0.0002705412010826 -0.0000000000000001 -0.0000000000000021 -0.0007039694408332  0.0000000000000006 -0.0000000000000013 -0.0005402725363894 -0.0000000000000007 -0.0000000000000004  0.0001003225421667  0.0000000000000004  0.0000000000000001  0.0002705412012968  0.0000000000000001  0.0000000000000017  0.0007039694341780 -0.0000000000000008  0.0000000000000019  0.0005402725264246
 -0.0000000000000051 -0.0000000000000093 -0.0000000000000045  0.0000000000000000 -0.0000000000000051 -0.0000000000000093 -0.0000000000000045  0.0000000000000000 -0.0000000000000000 -0.0000000000000000 -0.0000000000000004 -0.0000000000000000 -0.0000000000000000 -0.0000000000000010  0.0000000000000000 -0.0000000000000000 -0.0000000000000008 -0.0000000000000000 -0.0000000000000000  0.0000000000000001  0.0000000000000000  0.0000000000000000  0.0000000000000004  0.0000000000000000  0.0000000000000000  0.0000000000000010 -0.0000000000000000  0.0000000000000000  0.0000000000000008  0.0000000000000000
  0.0000000000000016  0.0000000000000028  0.0000000000000014 -0.0000000000000000  0.0000000000000016  0.0000000000000028  0.0000000000000014 -0.0000000000000000  0.0000000000000000  0.0000000000000000  0.0000000000000001  0.0000000000000000  0.0000000000000000  0.0000000000000003 -0.0000000000000000  0.0000000000000000  0.0000000000000002  0.0000000000000000  0.0000000000000000 -0.0000000000000000 -0.0000000000000000 -0.0000000000000000 -0.0000000000000001 -0.0000000000000000 -0.0000000000000000 -0.0000000000000003  0.0000000000000000 -0.0000000000000000 -0.0000000000000002 -0.0000000000000000  0.0000000000000000
  0.0006696271518712  0.0012187469717546  0.0005888559460088 -0.0000007005058421  0.0006696271518486  0.0012187469676731  0.0005888559397850 -0.0000007005326574  0.0000000000000001  0.0000000000000000  0.0000502364745647  0.0000000000000000  0.0000000000000004  0.0001307192500337 -0.0000000000000001  0.0000000000000002  0.0001003225661145  0.0000000000000001  0.0000000000000001 -0.0000186287737973 -0.0000000000000001 -0.0000000000000000 -0.0000502364746044 -0.0000000000000000 -0.0000000000000003 -0.0001307192487979  0.0000000000000001 -0.0000000000000004 -0.0001003225642642 -0.0000000000000001  0.0000000000000000  0.0000186287779006
 -0.0001733401248566 -0.0003154856425134 -0.0001524316373947  0.0000001813334029 -0.0001733401248507 -0.0003154856414568 -0.0001524316357836  0.0000001813403443 -0.0000000000000000 -0.0000000000000000 -0.0000130042468395 -0.0000000000000000 -0.0000000000000001 -0.0000338380710201  0.0000000000000000 -0.0000000000000001 -0.0000259695654330 -0.0000000000000000 -0.0000000000000000  0.0000048222566348  0.0000000000000000  0.0000000000000000  0.0000130042468498  0.0000000000000000  0.0000000000000001  0.0000338380707002 -0.0000000000000000  0.0000000000000001  0.0000259695649540  0.0000000000000000 -0.0000000000000000 -0.0000048222576970  0.0000012482927984
 -0.0001733401248576 -0.0003154856425153 -0.0001524316373957  0.0000001813334029 -0.0001733401248518 -0.0003154856414588 -0.0001524316357846  0.0000001813403443 -0.0000000000000000 -0.0000000000000000 -0.0000130042468396 -0.0000000000000000 -0.0000000000000001 -0.0000338380710203  0.0000000000000000 -0.0000000000000001 -0.0000259695654331 -0.0000000000000000 -0.0000000000000000  0.0000048222566348  0.0000000000000000  0.0000000000000000  0.0000130042468499  0.0000000000000000  0.0000000000000001  0.0000338380707004 -0.0000000000000000  0.0000000000000001  0.0000259695649542  0.0000000000000000 -0.0000000000000000 -0.0000048222576970  0.0000012482927984  0.0000012482927984
  0.0003466802497142  0.0006309712850287  0.0003048632747904 -0.0000003626668058  0.0003466802497025  0.0006309712829156  0.0003048632715682 -0.0000003626806887  0.0000000000000000  0.0000000000000000  0.0000260084936792  0.0000000000000000  0.0000000000000002  0.0000676761420404 -0.0000000000000001  0.0000000000000001  0.0000519391308661  0.0000000000000001  0.0000000000000000 -0.0000096445132696 -0.0000000000000000 -0.0000000000000000 -0.0000260084936998 -0.0000000000000000 -0.0000000000000002 -0.0000676761414006  0.0000000000000001 -0.0000000000000002 -0.0000519391299082 -0.0000000000000001  0.0000000000000000  0.0000096445153940 -0.0000024965855968 -0.0000024965855968  0.0000049931711936
 -0.0000000000000018 -0.0000000000000032 -0.0000000000000016  0.0000000000000000 -0.0000000000000018 -0.0000000000000032 -0.0000000000000016  0.0000000000000000 -0.0000000000000000 -0.0000000000000000 -0.0000000000000001 -0.0000000000000000 -0.0000000000000000 -0.0000000000000003  0.0000000000000000 -0.0000000000000000 -0.0000000000000003 -0.0000000000000000 -0.0000000000000000  0.0000000000000000  0.0000000000000000  0.0000000000000000  0.0000000000000001  0.0000000000000000  0.0000000000000000  0.0000000000000003 -0.0000000000000000  0.0000000000000000  0.0000000000000003  0.0000000000000000 -0.0000000000000000 -0.0000000000000000  0.0000000000000000  0.0000000000000000 -0.0000000000000000  0.0000000000000000
  0.0000000000000014  0.0000000000000025  0.0000000000000012 -0.0000000000000000  0.0000000000000014  0.0000000000000025  0.0000000000000012 -0.0000000000000000  0.0000000000000000  0.0000000000000000  0.0000000000000001  0.0000000000000000  0.0000000000000000  0.0000000000000003 -0.0000000000000000  0.0000000000000000  0.0000000000000002  0.0000000000000000  0.0000000000000000 -0.0000000000000000 -0.0000000000000000 -0.0000000000000000 -0.0000000000000001 -0.0000000000000000 -0.0000000000000000 -0.0000000000000003  0.0000000000000000 -0.0000000000000000 -0.0000000000000002 -0.0000000000000000  0.0000000000000000  0.0000000000000000 -0.0000000000000000 -0.0000000000000000  0.0000000000000000 -0.0000000000000000  0.0000000000000000
  0.0000000000000018  0.0000000000000033  0.0000000000000016 -0.0000000000000000  0.0000000000000018  0.0000000000000033  0.0000000000000016 -0.0000000000000000  0.0000000000000000  0.0000000000000000  0.0000000000000001  0.0000000000000000  0.0000000000000000  0.0000000000000004 -0.0000000000000000  0.0000000000000000  0.0000000000000003  0.0000000000000000  0.0000000000000000 -0.0000000000000001 -0.0000000000000000 -0.0000000000000000 -0.0000000000000001 -0.0000000000000000 -0.0000000000000000 -0.0000000000000004  0.0000000000000000 -0.0000000000000000 -0.0000000000000003 -0.0000000000000000  0.0000000000000000  0.0000000000000001 -0.0000000000000000 -0.0000000000000000  0.0000000000000000 -0.0000000000000000  0.0000000000000000  0.0000000000000000
 -0.0002560410645960 -0.0004660045090005 -0.0002251570935982  0.0000002678479525 -0.0002560410645873 -0.0004660045074399 -0.0002251570912184  0.0000002678582057 -0.0000000000000000 -0.0000000000000000 -0.0000192086004774 -0.0000000000000000 -0.0000000000000002 -0.0000499822861846  0.0000000000000000 -0.0000000000000001 -0.0000383596999602 -0.0000000000000001 -0.0000000000000000  0.0000071229654620  0.0000000000000000  0.0000000000000000  0.0000192086004926  0.0000000000000000  0.0000000000000001  0.0000499822857121 -0.0000000000000001  0.0000000000000001  0.0000383596992527  0.0000000000000001 -0.0000000000000000 -0.0000071229670309  0.0000018438559294  0.0000018438559294 -0.0000036877118589  0.0000000000000000 -0.0000000000000000 -0.0000000000000000  0.0000027235634884
 -0.0002560410645936 -0.0004660045089962 -0.0002251570935961  0.0000002678479525 -0.0002560410645850 -0.0004660045074356 -0.0002251570912163  0.0000002678582057 -0.0000000000000000 -0.0000000000000000 -0.0000192086004772 -0.0000000000000000 -0.0000000000000002 -0.0000499822861841  0.0000000000000000 -0.0000000000000001 -0.0000383596999598 -0.0000000000000001 -0.0000000000000000  0.0000071229654619  0.0000000000000000  0.0000000000000000  0.0000192086004924  0.0000000000000000  0.0000000000000001  0.0000499822857116 -0.0000000000000001  0.0000000000000001  0.0000383596992523  0.0000000000000001 -0.0000000000000000 -0.0000071229670308  0.0000018438559294  0.0000018438559294 -0.0000036877118588  0.0000000000000000 -0.0000000000000000 -0.0000000000000000  0.0000027235634884  0.0000027235634883
  0.0005120821291896  0.0009320090179967  0.0004503141871943 -0.0000005356959050  0.0005120821291723  0.0009320090148754  0.0004503141824348 -0.0000005357164114  0.0000000000000000  0.0000000000000000  0.0000384172009545  0.0000000000000000  0.0000000000000003  0.0000999645723687 -0.0000000000000001  0.0000000000000002  0.0000767193999200  0.0000000000000001  0.0000000000000001 -0.0000142459309239 -0.0000000000000001 -0.0000000000000000 -0.0000384172009850 -0.0000000000000000 -0.0000000000000002 -0.0000999645714237  0.0000000000000001 -0.0000000000000003 -0.0000767193985050 -0.0000000000000001  0.0000000000000000  0.0000142459340618 -0.0000036877118589 -0.0000036877118589  0.0000073754237177 -0.0000000000000000  0.0000000000000000  0.0000000000000000 -0.0000054471269768 -0.0000054471269767  0.0000108942539535
 -0.0000000000000025 -0.0000000000000046 -0.0000000000000022  0.0000000000000000 -0.0000000000000025 -0.0000000000000046 -0.0000000000000022  0.0000000000000000 -0.0000000000000000 -0.0000000000000000 -0.0000000000000002 -0.0000000000000000 -0.0000000000000000 -0.0000000000000005  0.0000000000000000 -0.0000000000000000 -0.0000000000000004 -0.0000000000000000 -0.0000000000000000  0.0000000000000001  0.0000000000000000  0.0000000000000000  0.0000000000000002  0.0000000000000000  0.0000000000000000  0.0000000000000005 -0.0000000000000000  0.0000000000000000  0.0000000000000004  0.0000000000000000 -0.0000000000000000 -0.0000000000000001  0.0000000000000000  0.0000000000000000 -0.0000000000000000  0.0000000000000000 -0.0000000000000000 -0.0000000000000000  0.0000000000000000  0.0000000000000000 -0.0000000000000001  0.0000000000000000
  0.0000000000000004  0.0000000000000008  0.0000000000000004 -0.0000000000000000  0.0000000000000004  0.0000000000000008  0.0000000000000004 -0.0000000000000000  0.0000000000000000  0.0000000000000000  0.0000000000000000  0.0000000000000000  0.0000000000000000  0.0000000000000001 -0.0000000000000000  0.0000000000000000  0.0000000000000001  0.0000000000000000  0.0000000000000000 -0.0000000000000000 -0.0000000000000000 -0.0000000000000000 -0.0000000000000000 -0.0000000000000000 -0.0000000000000000 -0.0000000000000001  0.0000000000000000 -0.0000000000000000 -0.0000000000000001 -0.0000000000000000  0.0000000000000000  0.0000000000000000 -0.0000000000000000 -0.0000000000000000  0.0000000000000000 -0.0000000000000000  0.0000000000000000  0.0000000000000000 -0.0000000000000000 -0.0000000000000000  0.0000000000000000 -0.0000000000000000  0.0000000000000000
  0.0000000000000085  0.0000000000000154  0.0000000000000075 -0.0000000000000000  0.0000000000000085  0.0000000000000154  0.0000000000000075 -0.0000000000000000  0.0000000000000000  0.0000000000000000  0.0000000000000006  0.0000000000000000  0.0000000000000000  0.0000000000000017 -0.0000000000000000  0.0000000000000000  0.0000000000000013  0.0000000000000000  0.0000000000000000 -0.0000000000000002 -0.0000000000000000 -0.0000000000000000 -0.0000000000000006 -0.0000000000000000 -0.0000000000000000 -0.0000000000000017  0.0000000000000000 -0.0000000000000000 -0.0000000000000013 -0.0000000000000000  0.0000000000000000  0.0000000000000002 -0.0000000000000001 -0.0000000000000001  0.0000000000000001 -0.0000000000000000  0.0000000000000000  0.0000000000000000 -0.0000000000000001 -0.0000000000000001  0.0000000000000002 -0.0000000000000000  0.0000000000000000  0.0000000000000000
 -0.0001733401247435 -0.0003154856423076 -0.0001524316372953  0.0000001813334028 -0.0001733401247376 -0.0003154856412510 -0.0001524316356842  0.0000001813403442 -0.0000000000000000 -0.0000000000000000 -0.0000130042468311 -0.0000000000000000 -0.0000000000000001 -0.0000338380709980  0.0000000000000000 -0.0000000000000001 -0.0000259695654160 -0.0000000000000000 -0.0000000000000000  0.0000048222566316  0.0000000000000000  0.0000000000000000  0.0000130042468414  0.0000000000000000  0.0000000000000001  0.0000338380706781 -0.0000000000000000  0.0000000000000001  0.0000259695649371  0.0000000000000000 -0.0000000000000000 -0.0000048222576938  0.0000012482927976  0.0000012482927976 -0.0000024965855951  0.0000000000000000 -0.0000000000000000 -0.0000000000000000  0.0000018438559282  0.0000018438559282 -0.0000036877118564  0.0000000000000000 -0.0000000000000000 -0.0000000000000001  0.0000012482927968
 -0.0001733401247441 -0.0003154856423087 -0.0001524316372958  0.0000001813334028 -0.0001733401247382 -0.0003154856412521 -0.0001524316356847  0.0000001813403442 -0.0000000000000000 -0.0000000000000000 -0.0000130042468311 -0.0000000000000000 -0.0000000000000001 -0.0000338380709981  0.0000000000000000 -0.0000000000000001 -0.0000259695654161 -0.0000000000000000 -0.0000000000000000  0.0000048222566317  0.0000000000000000  0.0000000000000000  0.0000130042468414  0.0000000000000000  0.0000000000000001  0.0000338380706782 -0.0000000000000000  0.0000000000000001  0.0000259695649372  0.0000000000000000 -0.0000000000000000 -0.0000048222576938  0.0000012482927976  0.0000012482927976 -0.0000024965855952  0.0000000000000000 -0.0000000000000000 -0.0000000000000000  0.0000018438559282  0.0000018438559282 -0.0000036877118565  0.0000000000000000 -0.0000000000000000 -0.0000000000000001  0.0000012482927968  0.0000012482927968
  0.0003466802494876  0.0006309712846162  0.0003048632745911 -0.0000003626668056  0.0003466802494759  0.0006309712825031  0.0003048632713689 -0.0000003626806884  0.0000000000000000  0.0000000000000000  0.0000260084936622  0.0000000000000000  0.0000000000000002  0.0000676761419961 -0.0000000000000001  0.0000000000000001  0.0000519391308322  0.0000000000000001  0.0000000000000000 -0.0000096445132633 -0.0000000000000000 -0.0000000000000000 -0.0000260084936828 -0.0000000000000000 -0.0000000000000002 -0.0000676761413563  0.0000000000000001 -0.0000000000000002 -0.0000519391298742 -0.0000000000000001  0.0000000000000000  0.0000096445153877 -0.0000024965855951 -0.0000024965855952  0.0000049931711903 -0.0000000000000000  0.0000000000000000  0.0000000000000000 -0.0000036877118565 -0.0000036877118564  0.0000073754237129 -0.0000000000000000  0.0000000000000000  0.0000000000000001 -0.0000024965855935 -0.0000024965855935  0.0000049931711870
  0.0000000000000005  0.0000000000000010  0.0000000000000005 -0.0000000000000000  0.0000000000000005  0.0000000000000010  0.0000000000000005 -0.0000000000000000  0.0000000000000000  0.0000000000000000  0.0000000000000000  0.0000000000000000  0.0000000000000000  0.0000000000000001 -0.0000000000000000  0.0000000000000000  0.0000000000000001  0.0000000000000000  0.0000000000000000 -0.0000000000000000 -0.0000000000000000 -0.0000000000000000 -0.0000000000000000 -0.0000000000000000 -0.0000000000000000 -0.0000000000000001  0.0000000000000000 -0.0000000000000000 -0.0000000000000001 -0.0000000000000000  0.0000000000000000  0.0000000000000000 -0.0000000000000000 -0.0000000000000000  0.0000000000000000 -0.0000000000000000  0.0000000000000000  0.0000000000000000 -0.0000000000000000 -0.0000000000000000  0.0000000000000000 -0.0000000000000000  0.0000000000000000  0.0000000000000000 -0.0000000000000000 -0.0000000000000000  0.0000000000000000  0.0000000000000000
  0.0000000000000004  0.0000000000000008  0.0000000000000004 -0.0000000000000000  0.0000000000000004  0.0000000000000008  0.0000000000000004 -0.0000000000000000  0.0000000000000000  0.0000000000000000  0.0000000000000000  0.0000000000000000  0.0000000000000000  0.0000000000000001 -0.0000000000000000  0.0000000000000000  0.0000000000000001  0.0000000000000000  0.0000000000000000 -0.0000000000000000 -0.0000000000000000 -0.0000000000000000 -0.0000000000000000 -0.0000000000000000 -0.0000000000000000 -0.0000000000000001  0.0000000000000000 -0.0000000000000000 -0.0000000000000001 -0.0000000000000000  0.0000000000000000  0.0000000000000000 -0.0000000000000000 -0.0000000000000000  0.0000000000000000 -0.0000000000000000  0.0000000000000000  0.0000000000000000 -0.0000000000000000 -0.0000000000000000  0.0000000000000000 -0.0000000000000000  0.0000000000000000  0.0000000000000000 -0.0000000000000000 -0.0000000000000000  0.0000000000000000  0.0000000000000000  0.0000000000000000
  0.0000000000000011  0.0000000000000021  0.0000000000000010 -0.0000000000000000  0.0000000000000011  0.0000000000000021  0.0000000000000010 -0.0000000000000000  0.0000000000000000  0.0000000000000000  0.0000000000000001  0.0000000000000000  0.0000000000000000  0.0000000000000002 -0.0000000000000000  0.0000000000000000  0.0000000000000002  0.0000000000000000  0.0000000000000000 -0.0000000000000000 -0.0000000000000000 -0.0000000000000000 -0.0000000000000001 -0.0000000000000000 -0.0000000000000000 -0.0000000000000002  0.0000000000000000 -0.0000000000000000 -0.0000000000000002 -0.0000000000000000  0.0000000000000000  0.0000000000000000 -0.0000000000000000 -0.0000000000000000  0.0000000000000000 -0.0000000000000000  0.0000000000000000  0.0000000000000000 -0.0000000000000000 -0.0000000000000000  0.0000000000000000 -0.0000000000000000  0.0000000000000000  0.0000000000000000 -0.0000000000000000 -0.0000000000000000  0.0000000000000000  0.0000000000000000  0.0000000000000000  0.0000000000000000
 -0.0002560410610694 -0.0004660045025820 -0.0002251570904970  0.0000002678479488 -0.0002560410610607 -0.0004660045010214 -0.0002251570881172  0.0000002678582020 -0.0000000000000000 -0.0000000000000000 -0.0000192086002128 -0.0000000000000000 -0.0000000000000002 -0.0000499822854962  0.0000000000000000 -0.0000000000000001 -0.0000383596994318 -0.0000000000000001 -0.0000000000000000  0.0000071229653639  0.0000000000000000  0.0000000000000000  0.0000192086002280  0.0000000000000000  0.0000000000000001  0.0000499822850236 -0.0000000000000001  0.0000000000000001  0.0000383596987243  0.0000000000000001 -0.0000000000000000 -0.0000071229669328  0.0000018438559040  0.0000018438559040 -0.0000036877118081  0.0000000000000000 -0.0000000000000000 -0.0000000000000000  0.0000027235634509  0.0000027235634509 -0.0000054471269017  0.0000000000000000 -0.0000000000000000 -0.0000000000000001  0.0000018438559028  0.0000018438559028 -0.0000036877118057 -0.0000000000000000 -0.0000000000000000 -0.0000000000000000  0.0000027235634134
 -0.0002560410610709 -0.0004660045025847 -0.0002251570904983  0.0000002678479488 -0.0002560410610622 -0.0004660045010241 -0.0002251570881185  0.0000002678582020 -0.0000000000000000 -0.0000000000000000 -0.0000192086002129 -0.0000000000000000 -0.0000000000000002 -0.0000499822854965  0.0000000000000000 -0.0000000000000001 -0.0000383596994321 -0.0000000000000001 -0.0000000000000000  0.0000071229653639  0.0000000000000000  0.0000000000000000  0.0000192086002281  0.0000000000000000  0.0000000000000001  0.0000499822850239 -0.0000000000000001  0.0000000000000001  0.0000383596987245  0.0000000000000001 -0.0000000000000000 -0.0000071229669328  0.0000018438559040  0.0000018438559041 -0.0000036877118081  0.0000000000000000 -0.0000000000000000 -0.0000000000000000  0.0000027235634509  0.0000027235634509 -0.0000054471269018  0.0000000000000000 -0.0000000000000000 -0.0000000000000001  0.0000018438559028  0.0000018438559029 -0.0000036877118057 -0.0000000000000000 -0.0000000000000000 -0.0000000000000000  0.0000027235634134  0.0000027235634134
  0.0005120821221403  0.0009320090051667  0.0004503141809953 -0.0000005356958976  0.0005120821221230  0.0009320090020454  0.0004503141762358 -0.0000005357164040  0.0000000000000000  0.0000000000000000  0.0000384172004257  0.0000000000000000  0.0000000000000003  0.0000999645709926 -0.0000000000000001  0.0000000000000002  0.0000767193988639  0.0000000000000001  0.0000000000000001 -0.0000142459307278 -0.0000000000000001 -0.0000000000000000 -0.0000384172004561 -0.0000000000000000 -0.0000000000000002 -0.0000999645700476  0.0000000000000001 -0.0000000000000003 -0.0000767193974489 -0.0000000000000001  0.0000000000000000  0.0000142459338657 -0.0000036877118081 -0.0000036877118081  0.0000073754236162 -0.0000000000000000  0.0000000000000000  0.0000000000000000 -0.0000054471269018 -0.0000054471269017  0.0000108942538035 -0.0000000000000001  0.0000000000000000  0.0000000000000002 -0.0000036877118057 -0.0000036877118057  0.0000073754236114  0.0000000000000000  0.0000000000000000  0.0000000000000000 -0.0000054471268268 -0.0000054471268268  0.0000108942536536
  0.0000000000000029  0.0000000000000053  0.0000000000000026 -0.0000000000000000  0.0000000000000029  0.0000000000000053  0.0000000000000026 -0.0000000000000000  0.0000000000000000  0.0000000000000000  0.0000000000000002  0.0000000000000000  0.0000000000000000  0.0000000000000006 -0.0000000000000000  0.0000000000000000  0.0000000000000004  0.0000000000000000  0.0000000000000000 -0.0000000000000001 -0.0000000000000000 -0.0000000000000000 -0.0000000000000002 -0.0000000000000000 -0.0000000000000000 -0.0000000000000006  0.0000000000000000 -0.0000000000000000 -0.0000000000000004 -0.0000000000000000  0.0000000000000000  0.0000000000000001 -0.0000000000000000 -0.0000000000000000  0.0000000000000000 -0.0000000000000000  0.0000000000000000  0.0000000000000000 -0.0000000000000000 -0.0000000000000000  0.0000000000000001 -0.0000000000000000  0.0000000000000000  0.0000000000000000 -0.0000000000000000 -0.0000000000000000  0.0000000000000000  0.0000000000000000  0.0000000000000000  0.0000000000000000 -0.0000000000000000 -0.0000000000000000  0.0000000000000001  0.0000000000000000
 -0.0000000000000013 -0.0000000000000023 -0.0000000000000011  0.0000000000000000 -0.0000000000000013 -0.0000000000000023 -0.0000000000000011  0.0000000000000000 -0.0000000000000000 -0.0000000000000000 -0.0000000000000001 -0.0000000000000000 -0.0000000000000000 -0.0000000000000002  0.0000000000000000 -0.0000000000000000 -0.0000000000000002 -0.0000000000000000 -0.0000000000000000  0.0000000000000000  0.0000000000000000  0.0000000000000000  0.0000000000000001  0.0000000000000000  0.0000000000000000  0.0000000000000002 -0.0000000000000000  0.0000000000000000  0.0000000000000002  0.0000000000000000 -0.0000000000000000 -0.0000000000000000  0.0000000000000000  0.0000000000000000 -0.0000000000000000  0.0000000000000000 -0.0000000000000000 -0.0000000000000000  0.0000000000000000  0.0000000000000000 -0.0000000000000000  0.0000000000000000 -0.0000000000000000 -0.0000000000000000  0.0000000000000000  0.0000000000000000 -0.0000000000000000 -0.0000000000000000 -0.0000000000000000 -0.0000000000000000  0.0000000000000000  0.0000000000000000 -0.0000000000000000 -0.0000000000000000  0.0000000000000000
  0.0000000000000106  0.0000000000000193  0.0000000000000093 -0.0000000000000000  0.0000000000000106  0.0000000000000193  0.0000000000000093 -0.0000000000000000  0.0000000000000000  0.0000000000000000  0.0000000000000008  0.0000000000000000  0.0000000000000000  0.0000000000000021 -0.0000000000000000  0.0000000000000000  0.0000000000000016  0.0000000000000000  0.0000000000000000 -0.0000000000000003 -0.0000000000000000 -0.0000000000000000 -0.0000000000000008 -0.0000000000000000 -0.0000000000000000 -0.0000000000000021  0.0000000000000000 -0.0000000000000000 -0.0000000000000016 -0.0000000000000000  0.0000000000000000  0.0000000000000003 -0.0000000000000001 -0.0000000000000001  0.0000000000000002 -0.0000000000000000  0.0000000000000000  0.0000000000000000 -0.0000000000000001 -0.0000000000000001  0.0000000000000002 -0.0000000000000000  0.0000000000000000  0.0000000000000000 -0.0000000000000001 -0.0000000000000001  0.0000000000000002  0.0000000000000000  0.0000000000000000  0.0000000000000000 -0.0000000000000001 -0.0000000000000001  0.0000000000000002  0.0000000000000000 -0.0000000000000000  0.0000000000000000
 -0.0000000000000006 -0.0000000000000011 -0.0000000000000005  0.0000000000000000 -0.0000000000000006 -0.0000000000000011 -0.0000000000000005  0.0000000000000000 -0.0000000000000000 -0.0000000000000000 -0.0000000000000000 -0.0000000000000000 -0.0000000000000000 -0.0000000000000001  0.0000000000000000 -0.0000000000000000 -0.0000000000000001 -0.0000000000000000 -0.0000000000000000  0.0000000000000000  0.0000000000000000  0.0000000000000000  0.0000000000000000  0.0000000000000000  0.0000000000000000  0.0000000000000001 -0.0000000000000000  0.0000000000000000  0.0000000000000001  0.0000000000000000 -0.0000000000000000 -0.0000000000000000  0.0000000000000000  0.0000000000000000 -0.0000000000000000  0.0000000000000000 -0.0000000000000000 -0.0000000000000000  0.0000000000000000  0.0000000000000000 -0.0000000000000000  0.0000000000000000 -0.0000000000000000 -0.0000000000000000  0.0000000000000000  0.0000000000000000 -0.0000000000000000 -0.0000000000000000 -0.0000000000000000 -0.0000000000000000  0.0000000000000000  0.0000000000000000 -0.0000000000000000 -0.0000000000000000  0.0000000000000000 -0.0000000000000000  0.0000000000000000
 -0.0000000000000003 -0.0000000000000006 -0.0000000000000003  0.0000000000000000 -0.0000000000000003 -0.0000000000000006 -0.0000000000000003  0.0000000000000000 -0.0000000000000000 -0.0000000000000000 -0.0000000000000000 -0.0000000000000000 -0.0000000000000000 -0.0000000000000001  0.0000000000000000 -0.0000000000000000 -0.0000000000000000 -0.0000000000000000 -0.0000000000000000  0.0000000000000000  0.0000000000000000  0.0000000000000000  0.0000000000000000  0.0000000000000000  0.0000000000000000  0.0000000000000001 -0.0000000000000000  0.0000000000000000  0.0000000000000000  0.0000000000000000 -0.0000000000000000 -0.0000000000000000  0.0000000000000000  0.0000000000000000 -0.0000000000000000  0.0000000000000000 -0.0000000000000000 -0.0000000000000000  0.0000000000000000  0.0000000000000000 -0.0000000000000000  0.0000000000000000 -0.0000000000000000 -0.0000000000000000  0.0000000000000000  0.0000000000000000 -0.0000000000000000 -0.0000000000000000 -0.0000000000000000 -0.0000000000000000  0.0000000000000000  0.0000000000000000 -0.0000000000000000 -0.0000000000000000  0.0000000000000000 -0.0000000000000000  0.0000000000000000  0.0000000000000000
  0.0000632579647768  0.0001151319100422  0.0000556277154938 -0.0000000661749957  0.0000632579647747  0.0001151319096567  0.0000556277149059 -0.0000000661775289  0.0000000000000000  0.0000000000000000  0.0000047457112957  0.0000000000000000  0.0000000000000000  0.0000123487132969 -0.0000000000000000  0.0000000000000000  0.0000094772162925  0.0000000000000000  0.0000000000000000 -0.0000017598126262 -0.0000000000000000 -0.0000000000000000 -0.0000047457112994 -0.0000000000000000 -0.0000000000000000 -0.0000123487131802  0.0000000000000000 -0.0000000000000000 -0.0000094772161177 -0.0000000000000000  0.0000000000000000  0.0000017598130138 -0.0000004555463539 -0.0000004555463540  0.0000009110927079 -0.0000000000000000  0.0000000000000000  0.0000000000000000 -0.0000006728884817 -0.0000006728884817  0.0000013457769635 -0.0000000000000000  0.0000000000000000  0.0000000000000000 -0.0000004555463537 -0.0000004555463537  0.0000009110927073  0.0000000000000000  0.0000000000000000  0.0000000000000000 -0.0000006728884725 -0.0000006728884725  0.0000013457769449  0.0000000000000000 -0.0000000000000000  0.0000000000000000 -0.0000000000000000 -0.0000000000000000  0.0000001662450355
 -0.0000000000000008 -0.0000000000000014 -0.0000000000000007  0.0000000000000000 -0.0000000000000008 -0.0000000000000014 -0.0000000000000007  0.0000000000000000 -0.0000000000000000 -0.0000000000000000 -0.0000000000000001 -0.0000000000000000 -0.0000000000000000 -0.0000000000000002  0.0000000000000000 -0.0000000000000000 -0.0000000000000001 -0.0000000000000000 -0.0000000000000000  0.0000000000000000  0.0000000000000000  0.0000000000000000  0.0000000000000001  0.0000000000000000  0.0000000000000000  0.0000000000000002 -0.0000000000000000  0.0000000000000000  0.0000000000000001  0.0000000000000000 -0.0000000000000000 -0.0000000000000000  0.0000000000000000  0.0000000000000000 -0.0000000000000000  0.0000000000000000 -0.0000000000000000 -0.0000000000000000  0.0000000000000000  0.0000000000000000 -0.0000000000000000  0.0000000000000000 -0.0000000000000000 -0.0000000000000000  0.0000000000000000  0.0000000000000000 -0.0000000000000000 -0.0000000000000000 -0.0000000000000000 -0.0000000000000000  0.0000000000000000  0.0000000000000000 -0.0000000000000000 -0.0000000000000000  0.0000000000000000 -0.0000000000000000  0.0000000000000000  0.0000000000000000 -0.0000000000000000  0.0000000000000000
 -0.0000948869471658 -0.0001726978650645 -0.0000834415732413  0.0000000992624935 -0.0000948869471626 -0.0001726978644861 -0.0000834415723594  0.0000000992662933 -0.0000000000000000 -0.0000000000000000 -0.0000071185669436 -0.0000000000000000 -0.0000000000000001 -0.0000185230699455  0.0000000000000000 -0.0000000000000000 -0.0000142158244388 -0.0000000000000000 -0.0000000000000000  0.0000026397189393  0.0000000000000000  0.0000000000000000  0.0000071185669492  0.0000000000000000  0.0000000000000000  0.0000185230697704 -0.0000000000000000  0.0000000000000000  0.0000142158241766  0.0000000000000000 -0.0000000000000000 -0.0000026397195207  0.0000006833195309  0.0000006833195309 -0.0000013666390619  0.0000000000000000 -0.0000000000000000 -0.0000000000000000  0.0000010093327226  0.0000010093327226 -0.0000020186654452  0.0000000000000000 -0.0000000000000000 -0.0000000000000000  0.0000006833195305  0.0000006833195305 -0.0000013666390610 -0.0000000000000000 -0.0000000000000000 -0.0000000000000000  0.0000010093327087  0.0000010093327087 -0.0000020186654174 -0.0000000000000000  0.0000000000000000 -0.0000000000000000  0.0000000000000000  0.0000000000000000 -0.0000002493675533  0.0000000000000000  0.0000003740513299
  0.0000000000000001  0.0000000000000002  0.0000000000000001 -0.0000000000000000  0.0000000000000001  0.0000000000000002  0.0000000000000001 -0.0000000000000000  0.0000000000000000  0.0000000000000000  0.0000000000000000  0.0000000000000000  0.0000000000000000  0.0000000000000000 -0.0000000000000000  0.0000000000000000  0.0000000000000000  0.0000000000000000  0.0000000000000000 -0.0000000000000000 -0.0000000000000000 -0.0000000000000000 -0.0000000000000000 -0.0000000000000000 -0.0000000000000000 -0.0000000000000000  0.0000000000000000 -0.0000000000000000 -0.0000000000000000 -0.0000000000000000  0.0000000000000000  0.0000000000000000 -0.0000000000000000 -0.0000000000000000  0.0000000000000000 -0.0000000000000000  0.0000000000000000  0.0000000000000000 -0.0000000000000000 -0.0000000000000000  0.0000000000000000 -0.0000000000000000  0.0000000000000000  0.0000000000000000 -0.0000000000000000 -0.0000000000000000  0.0000000000000000  0.0000000000000000  0.0000000000000000  0.0000000000000000 -0.0000000000000000 -0.0000000000000000  0.0000000000000000  0.0000000000000000 -0.0000000000000000  0.0000000000000000 -0.0000000000000000 -0.0000000000000000  0.0000000000000000 -0.0000000000000000 -0.0000000000000000  0.0000000000000000
 -0.0000948869471646 -0.0001726978650622 -0.0000834415732402  0.0000000992624935 -0.0000948869471614 -0.0001726978644839 -0.0000834415723583  0.0000000992662933 -0.0000000000000000 -0.0000000000000000 -0.0000071185669435 -0.0000000000000000 -0.0000000000000001 -0.0000185230699452  0.0000000000000000 -0.0000000000000000 -0.0000142158244386 -0.0000000000000000 -0.0000000000000000  0.0000026397189393  0.0000000000000000  0.0000000000000000  0.0000071185669491  0.0000000000000000  0.0000000000000000  0.0000185230697701 -0.0000000000000000  0.0000000000000000  0.0000142158241764  0.0000000000000000 -0.0000000000000000 -0.0000026397195207  0.0000006833195309  0.0000006833195309 -0.0000013666390618  0.0000000000000000 -0.0000000000000000 -0.0000000000000000  0.0000010093327226  0.0000010093327226 -0.0000020186654452  0.0000000000000000 -0.0000000000000000 -0.0000000000000000  0.0000006833195305  0.0000006833195305 -0.0000013666390609 -0.0000000000000000 -0.0000000000000000 -0.0000000000000000  0.0000010093327087  0.0000010093327087 -0.0000020186654174 -0.0000000000000000  0.0000000000000000 -0.0000000000000000  0.0000000000000000  0.0000000000000000 -0.0000002493675533  0.0000000000000000  0.0000003740513299 -0.0000000000000000  0.0000003740513299
  0.0000000000000018  0.0000000000000032  0.0000000000000016 -0.0000000000000000  0.0000000000000018  0.0000000000000032  0.0000000000000016 -0.0000000000000000  0.0000000000000000  0.0000000000000000  0.0000000000000001  0.0000000000000000  0.0000000000000000  0.0000000000000003 -0.0000000000000000  0.0000000000000000  0.0000000000000003  0.0000000000000000  0.0000000000000000 -0.0000000000000000 -0.0000000000000000 -0.0000000000000000 -0.0000000000000001 -0.0000000000000000 -0.0000000000000000 -0.0000000000000003  0.0000000000000000 -0.0000000000000000 -0.0000000000000003 -0.0000000000000000  0.0000000000000000  0.0000000000000000 -0.0000000000000000 -0.0000000000000000  0.0000000000000000 -0.0000000000000000  0.0000000000000000  0.0000000000000000 -0.0000000000000000 -0.0000000000000000  0.0000000000000000 -0.0000000000000000  0.0000000000000000  0.0000000000000000 -0.0000000000000000 -0.0000000000000000  0.0000000000000000  0.0000000000000000  0.0000000000000000  0.0000000000000000 -0.0000000000000000 -0.0000000000000000  0.0000000000000000  0.0000000000000000 -0.0000000000000000  0.0000000000000000 -0.0000000000000000 -0.0000000000000000  0.0000000000000000 -0.0000000000000000 -0.0000000000000000  0.0000000000000000 -0.0000000000000000  0.0000000000000000
  0.0000000000000018  0.0000000000000032  0.0000000000000015 -0.0000000000000000  0.0000000000000018  0.0000000000000032  0.0000000000000015 -0.0000000000000000  0.0000000000000000  0.0000000000000000  0.0000000000000001  0.0000000000000000  0.0000000000000000  0.0000000000000003 -0.0000000000000000  0.0000000000000000  0.0000000000000003  0.0000000000000000  0.0000000000000000 -0.0000000000000000 -0.0000000000000000 -0.0000000000000000 -0.0000000000000001 -0.0000000000000000 -0.0000000000000000 -0.0000000000000003  0.0000000000000000 -0.0000000000000000 -0.0000000000000003 -0.0000000000000000  0.0000000000000000  0.0000000000000000 -0.0000000000000000 -0.0000000000000000  0.0000000000000000 -0.0000000000000000  0.0000000000000000  0.0000000000000000 -0.0000000000000000 -0.0000000000000000  0.0000000000000000 -0.0000000000000000  0.0000000000000000  0.0000000000000000 -0.0000000000000000 -0.0000000000000000  0.0000000000000000  0.0000000000000000  0.0000000000000000  0.0000000000000000 -0.0000000000000000 -0.0000000000000000  0.0000000000000000  0.0000000000000000 -0.0000000000000000  0.0000000000000000 -0.0000000000000000 -0.0000000000000000  0.0000000000000000 -0.0000000000000000 -0.0000000000000000  0.0000000000000000 -0.0000000000000000  0.0000000000000000  0.0000000000000000
 -0.0000000000000038 -0.0000000000000069 -0.0000000000000034  0.0000000000000000 -0.0000000000000038 -0.0000000000000069 -0.0000000000000034  0.0000000000000000 -0.0000000000000000 -0.0000000000000000 -0.0000000000000003 -0.0000000000000000 -0.0000000000000000 -0.0000000000000007  0.0000000000000000 -0.0000000000000000 -0.0000000000000006 -0.0000000000000000 -0.0000000000000000  0.0000000000000001  0.0000000000000000  0.0000000000000000  0.0000000000000003  0.0000000000000000  0.0000000000000000  0.0000000000000007 -0.0000000000000000  0.0000000000000000  0.0000000000000006  0.0000000000000000 -0.0000000000000000 -0.0000000000000001  0.0000000000000000  0.0000000000000000 -0.0000000000000001  0.0000000000000000 -0.0000000000000000 -0.0000000000000000  0.0000000000000000  0.0000000000000000 -0.0000000000000001  0.0000000000000000 -0.0000000000000000 -0.0000000000000000  0.0000000000000000  0.0000000000000000 -0.0000000000000001 -0.0000000000000000 -0.0000000000000000 -0.0000000000000000  0.0000000000000000  0.0000000000000000 -0.0000000000000001 -0.0000000000000000  0.0000000000000000 -0.0000000000000000  0.0000000000000000  0.0000000000000000 -0.0000000000000000  0.0000000000000000  0.0000000000000000 -0.0000000000000000  0.0000000000000000 -0.0000000000000000 -0.0000000000000000  0.0000000000000000
  0.0000000000000004  0.0000000000000007  0.0000000000000004 -0.0000000000000000  0.0000000000000004  0.0000000000000007  0.0000000000000004 -0.0000000000000000  0.0000000000000000  0.0000000000000000  0.0000000000000000  0.0000000000000000  0.0000000000000000  0.0000000000000001 -0.0000000000000000  0.0000000000000000  0.0000000000000001  0.0000000000000000  0.0000000000000000 -0.0000000000000000 -0.0000000000000000 -0.0000000000000000 -0.0000000000000000 -0.0000000000000000 -0.0000000000000000 -0.0000000000000001  0.0000000000000000 -0.0000000000000000 -0.0000000000000001 -0.0000000000000000  0.0000000000000000  0.0000000000000000 -0.0000000000000000 -0.0000000000000000  0.0000000000000000 -0.0000000000000000  0.0000000000000000  0.0000000000000000 -0.0000000000000000 -0.0000000000000000  0.0000000000000000 -0.0000000000000000  0.0000000000000000  0.0000000000000000 -0.0000000000000000 -0.0000000000000000  0.0000000000000000  0.0000000000000000  0.0000000000000000  0.0000000000000000 -0.0000000000000000 -0.0000000000000000  0.0000000000000000  0.0000000000000000 -0.0000000000000000  0.0000000000000000 -0.0000000000000000 -0.0000000000000000  0.0000000000000000 -0.0000000000000000 -0.0000000000000000  0.0000000000000000 -0.0000000000000000  0.0000000000000000  0.0000000000000000 -0.0000000000000000  0.0000000000000000
  0.0000000000000004  0.0000000000000007  0.0000000000000003 -0.0000000000000000  0.0000000000000004  0.0000000000000007  0.0000000000000003 -0.0000000000000000  0.0000000000000000  0.0000000000000000  0.0000000000000000  0.0000000000000000  0.0000000000000000  0.0000000000000001 -0.0000000000000000  0.0000000000000000  0.0000000000000001  0.0000000000000000  0.0000000000000000 -0.0000000000000000 -0.0000000000000000 -0.0000000000000000 -0.0000000000000000 -0.0000000000000000 -0.0000000000000000 -0.0000000000000001  0.0000000000000000 -0.0000000000000000 -0.0000000000000001 -0.0000000000000000  0.0000000000000000  0.0000000000000000 -0.0000000000000000 -0.0000000000000000  0.0000000000000000 -0.0000000000000000  0.0000000000000000  0.0000000000000000 -0.0000000000000000 -0.0000000000000000  0.0000000000000000 -0.0000000000000000  0.0000000000000000  0.0000000000000000 -0.0000000000000000 -0.0000000000000000  0.0000000000000000  0.0000000000000000  0.0000000000000000  0.0000000000000000 -0.0000000000000000 -0.0000000000000000  0.0000000000000000  0.0000000000000000 -0.0000000000000000  0.0000000000000000 -0.0000000000000000 -0.0000000000000000  0.0000000000000000 -0.0000000000000000 -0.0000000000000000  0.0000000000000000 -0.0000000000000000  0.0000000000000000  0.0000000000000000 -0.0000000000000000  0.0000000000000000  0.0000000000000000
 -0.0000632579647767 -0.0001151319100420 -0.0000556277154937  0.0000000661749957 -0.0000632579647745 -0.0001151319096564 -0.0000556277149058  0.0000000661775289 -0.0000000000000000 -0.0000000000000000 -0.0000047457112957 -0.0000000000000000 -0.0000000000000000 -0.0000123487132969  0.0000000000000000 -0.0000000000000000 -0.0000094772162924 -0.0000000000000000 -0.0000000000000000  0.0000017598126262  0.0000000000000000  0.0000000000000000  0.0000047457112994  0.0000000000000000  0.0000000000000000  0.0000123487131801 -0.0000000000000000  0.0000000000000000  0.0000094772161176  0.0000000000000000 -0.0000000000000000 -0.0000017598130138  0.0000004555463539  0.0000004555463539 -0.0000009110927079  0.0000000000000000 -0.0000000000000000 -0.0000000000000000  0.0000006728884817  0.0000006728884817 -0.0000013457769635  0.0000000000000000 -0.0000000000000000 -0.0000000000000000  0.0000004555463536  0.0000004555463537 -0.0000009110927073 -0.0000000000000000 -0.0000000000000000 -0.0000000000000000  0.0000006728884725  0.0000006728884725 -0.0000013457769449 -0.0000000000000000  0.0000000000000000 -0.0000000000000000  0.0000000000000000  0.0000000000000000 -0.0000001662450355  0.0000000000000000  0.0000002493675533 -0.0000000000000000  0.0000002493675533 -0.0000000000000000 -0.0000000000000000  0.0000000000000000 -0.0000000000000000 -0.0000000000000000  0.0000001662450355
  0.0000000000000014  0.0000000000000025  0.0000000000000012 -0.0000000000000000  0.0000000000000014  0.0000000000000025  0.0000000000000012 -0.0000000000000000  0.0000000000000000  0.0000000000000000  0.0000000000000001  0.0000000000000000  0.0000000000000000  0.0000000000000003 -0.0000000000000000  0.0000000000000000  0.0000000000000002  0.0000000000000000  0.0000000000000000 -0.0000000000000000 -0.0000000000000000 -0.0000000000000000 -0.0000000000000001 -0.0000000000000000 -0.0000000000000000 -0.0000000000000003  0.0000000000000000 -0.0000000000000000 -0.0000000000000002 -0.0000000000000000  0.0000000000000000  0.0000000000000000 -0.0000000000000000 -0.0000000000000000  0.0000000000000000 -0.0000000000000000  0.0000000000000000  0.0000000000000000 -0.0000000000000000 -0.0000000000000000  0.0000000000000000 -0.0000000000000000  0.0000000000000000  0.0000000000000000 -0.0000000000000000 -0.0000000000000000  0.0000000000000000  0.0000000000000000  0.0000000000000000  0.0000000000000000 -0.0000000000000000 -0.0000000000000000  0.0000000000000000  0.0000000000000000 -0.0000000000000000  0.0000000000000000 -0.0000000000000000 -0.0000000000000000  0.0000000000000000 -0.0000000000000000 -0.0000000000000000  0.0000000000000000 -0.0000000000000000  0.0000000000000000  0.0000000000000000 -0.0000000000000000  0.0000000000000000  0.0000000000000000 -0.0000000000000000  0.0000000000000000
  0.0000948869471643  0.0001726978650617  0.0000834415732400 -0.0000000992624935  0.0000948869471611  0.0001726978644834  0.0000834415723580 -0.0000000992662933  0.0000000000000000  0.0000000000000000  0.0000071185669434  0.0000000000000000  0.0000000000000001  0.0000185230699452 -0.0000000000000000  0.0000000000000000  0.0000142158244386  0.0000000000000000  0.0000000000000000 -0.0000026397189393 -0.0000000000000000 -0.0000000000000000 -0.0000071185669491 -0.0000000000000000 -0.0000000000000000 -0.0000185230697701  0.0000000000000000 -0.0000000000000000 -0.0000142158241764 -0.0000000000000000  0.0000000000000000  0.0000026397195207 -0.0000006833195309 -0.0000006833195309  0.0000013666390618 -0.0000000000000000  0.0000000000000000  0.0000000000000000 -0.0000010093327226 -0.0000010093327226  0.0000020186654452 -0.0000000000000000  0.0000000000000000  0.0000000000000000 -0.0000006833195305 -0.0000006833195305  0.0000013666390609  0.0000000000000000  0.0000000000000000  0.0000000000000000 -0.0000010093327087 -0.0000010093327087  0.0000020186654174  0.0000000000000000 -0.0000000000000000  0.0000000000000000 -0.0000000000000000 -0.0000000000000000  0.0000002493675533 -0.0000000000000000 -0.0000003740513299  0.0000000000000000 -0.0000003740513299  0.0000000000000000  0.0000000000000000 -0.0000000000000000  0.0000000000000000  0.0000000000000000 -0.0000002493675533  0.0000000000000000  0.0000003740513299
  0.0000000000000002  0.0000000000000003  0.0000000000000002 -0.0000000000000000  0.0000000000000002  0.0000000000000003  0.0000000000000002 -0.0000000000000000  0.0000000000000000  0.0000000000000000  0.0000000000000000  0.0000000000000000  0.0000000000000000  0.0000000000000000 -0.0000000000000000  0.0000000000000000  0.0000000000000000  0.0000000000000000  0.0000000000000000 -0.0000000000000000 -0.0000000000000000 -0.0000000000000000 -0.0000000000000000 -0.0000000000000000 -0.0000000000000000 -0.0000000000000000  0.0000000000000000 -0.0000000000000000 -0.0000000000000000 -0.0000000000000000  0.0000000000000000  0.0000000000000000 -0.0000000000000000 -0.0000000000000000  0.0000000000000000 -0.0000000000000000  0.0000000000000000  0.0000000000000000 -0.0000000000000000 -0.0000000000000000  0.0000000000000000 -0.0000000000000000  0.0000000000000000  0.0000000000000000 -0.0000000000000000 -0.0000000000000000  0.0000000000000000  0.0000000000000000  0.0000000000000000  0.0000000000000000 -0.0000000000000000 -0.0000000000000000  0.0000000000000000  0.0000000000000000 -0.0000000000000000  0.0000000000000000 -0.0000000000000000 -0.0000000000000000  0.0000000000000000 -0.0000000000000000 -0.0000000000000000  0.0000000000000000 -0.0000000000000000  0.0000000000000000  0.0000000000000000 -0.0000000000000000  0.0000000000000000  0.0000000000000000 -0.0000000000000000  0.0000000000000000  0.0000000000000000  0.0000000000000000
  0.0000948869471657  0.0001726978650643  0.0000834415732412 -0.0000000992624935  0.0000948869471625  0.0001726978644859  0.0000834415723592 -0.0000000992662933  0.0000000000000000  0.0000000000000000  0.0000071185669435  0.0000000000000000  0.0000000000000001  0.0000185230699454 -0.0000000000000000  0.0000000000000000  0.0000142158244388  0.0000000000000000  0.0000000000000000 -0.0000026397189393 -0.0000000000000000 -0.0000000000000000 -0.0000071185669492 -0.0000000000000000 -0.0000000000000000 -0.0000185230697703  0.0000000000000000 -0.0000000000000000 -0.0000142158241766 -0.0000000000000000  0.0000000000000000  0.0000026397195207 -0.0000006833195309 -0.0000006833195309  0.0000013666390619 -0.0000000000000000  0.0000000000000000  0.0000000000000000 -0.0000010093327226 -0.0000010093327226  0.0000020186654452 -0.0000000000000000  0.0000000000000000  0.0000000000000000 -0.0000006833195305 -0.0000006833195305  0.0000013666390610  0.0000000000000000  0.0000000000000000  0.0000000000000000 -0.0000010093327087 -0.0000010093327087  0.0000020186654174  0.0000000000000000 -0.0000000000000000  0.0000000000000000 -0.0000000000000000 -0.0000000000000000  0.0000002493675533 -0.0000000000000000 -0.0000003740513299  0.0000000000000000 -0.0000003740513299  0.0000000000000000  0.0000000000000000 -0.0000000000000000  0.0000000000000000  0.0000000000000000 -0.0000002493675533  0.0000000000000000  0.0000003740513299  0.0000000000000000  0.0000003740513299
 -0.0000000000000014 -0.0000000000000025 -0.0000000000000012  0.0000000000000000 -0.0000000000000014 -0.0000000000000025 -0.0000000000000012  0.0000000000000000 -0.0000000000000000 -0.0000000000000000 -0.0000000000000001 -0.0000000000000000 -0.0000000000000000 -0.0000000000000003  0.0000000000000000 -0.0000000000000000 -0.0000000000000002 -0.0000000000000000 -0.0000000000000000  0.0000000000000000  0.0000000000000000  0.0000000000000000  0.0000000000000001  0.0000000000000000  0.0000000000000000  0.0000000000000003 -0.0000000000000000  0.0000000000000000  0.0000000000000002  0.0000000000000000 -0.0000000000000000 -0.0000000000000000  0.0000000000000000  0.0000000000000000 -0.0000000000000000  0.0000000000000000 -0.0000000000000000 -0.0000000000000000  0.0000000000000000  0.0000000000000000 -0.0000000000000000  0.0000000000000000 -0.0000000000000000 -0.0000000000000000  0.0000000000000000  0.0000000000000000 -0.0000000000000000 -0.0000000000000000 -0.0000000000000000 -0.0000000000000000  0.0000000000000000  0.0000000000000000 -0.0000000000000000 -0.0000000000000000  0.0000000000000000 -0.0000000000000000  0.0000000000000000  0.0000000000000000 -0.0000000000000000  0.0000000000000000  0.0000000000000000 -0.0000000000000000  0.0000000000000000 -0.0000000000000000 -0.0000000000000000  0.0000000000000000 -0.0000000000000000 -0.0000000000000000  0.0000000000000000 -0.0000000000000000 -0.0000000000000000 -0.0000000000000000 -0.0000000000000000  0.0000000000000000
 -0.0000000000000026 -0.0000000000000046 -0.0000000000000022  0.0000000000000000 -0.0000000000000026 -0.0000000000000046 -0.0000000000000022  0.0000000000000000 -0.0000000000000000 -0.0000000000000000 -0.0000000000000002 -0.0000000000000000 -0.0000000000000000 -0.0000000000000005  0.0000000000000000 -0.0000000000000000 -0.0000000000000004 -0.0000000000000000 -0.0000000000000000  0.0000000000000001  0.0000000000000000  0.0000000000000000  0.0000000000000002  0.0000000000000000  0.0000000000000000  0.0000000000000005 -0.0000000000000000  0.0000000000000000  0.0000000000000004  0.0000000000000000 -0.0000000000000000 -0.0000000000000001  0.0000000000000000  0.0000000000000000 -0.0000000000000000  0.0000000000000000 -0.0000000000000000 -0.0000000000000000  0.0000000000000000  0.0000000000000000 -0.0000000000000001  0.0000000000000000 -0.0000000000000000 -0.0000000000000000  0.0000000000000000  0.0000000000000000 -0.0000000000000000 -0.0000000000000000 -0.0000000000000000 -0.0000000000000000  0.0000000000000000  0.0000000000000000 -0.0000000000000001 -0.0000000000000000  0.0000000000000000 -0.0000000000000000  0.0000000000000000  0.0000000000000000 -0.0000000000000000  0.0000000000000000  0.0000000000000000 -0.0000000000000000  0.0000000000000000 -0.0000000000000000 -0.0000000000000000  0.0000000000000000 -0.0000000000000000 -0.0000000000000000  0.0000000000000000 -0.0000000000000000 -0.0000000000000000 -0.0000000000000000 -0.0000000000000000  0.0000000000000000  0.0000000000000000
 -0.0000000000000038 -0.0000000000000069 -0.0000000000000033  0.0000000000000000 -0.0000000000000038 -0.0000000000000069 -0.0000000000000033  0.0000000000000000 -0.0000000000000000 -0.0000000000000000 -0.0000000000000003 -0.0000000000000000 -0.0000000000000000 -0.0000000000000007  0.0000000000000000 -0.0000000000000000 -0.0000000000000006 -0.0000000000000000 -0.0000000000000000  0.0000000000000001  0.0000000000000000  0.0000000000000000  0.0000000000000003  0.0000000000000000  0.0000000000000000  0.0000000000000007 -0.0000000000000000  0.0000000000000000  0.0000000000000006  0.0000000000000000 -0.0000000000000000 -0.0000000000000001  0.0000000000000000  0.0000000000000000 -0.0000000000000001  0.0000000000000000 -0.0000000000000000 -0.0000000000000000  0.0000000000000000  0.0000000000000000 -0.0000000000000001  0.0000000000000000 -0.0000000000000000 -0.0000000000000000  0.0000000000000000  0.0000000000000000 -0.0000000000000001 -0.0000000000000000 -0.0000000000000000 -0.0000000000000000  0.0000000000000000  0.0000000000000000 -0.0000000000000001 -0.0000000000000000  0.0000000000000000 -0.0000000000000000  0.0000000000000000  0.0000000000000000 -0.0000000000000000  0.0000000000000000  0.0000000000000000 -0.0000000000000000  0.0000000000000000 -0.0000000000000000 -0.0000000000000000  0.0000000000000000 -0.0000000000000000 -0.0000000000000000  0.0000000000000000 -0.0000000000000000 -0.0000000000000000 -0.0000000000000000 -0.0000000000000000  0.0000000000000000  0.0000000000000000  0.0000000000000000
 END
 
 Lower triangle of beta RDM in AO basis:
  0.0000000000000000
  0.0000000000000000  0.0000000000000000
  0.0000000000000000  0.0000000000000000  0.0000000000000000
  0.0000000000000000  0.0000000000000000  0.0000000000000000  0.0000000000000000
  0.0000000000000000  0.0000000000000000  0.0000000000000000  0.0000000000000000  0.0000000000000000
  0.0000000000000000  0.0000000000000000  0.0000000000000000  0.0000000000000000  0.0000000000000000  0.0000000000000000
  0.0000000000000000  0.0000000000000000  0.0000000000000000  0.0000000000000000  0.0000000000000000  0.0000000000000000  0.0000000000000000
  0.0000000000000000  0.0000000000000000  0.0000000000000000  0.0000000000000000  0.0000000000000000  0.0000000000000000  0.0000000000000000  0.0000000000000000
  0.0000000000000000  0.0000000000000000  0.0000000000000000  0.0000000000000000  0.0000000000000000  0.0000000000000000  0.0000000000000000  0.0000000000000000  0.0000000000000000
  0.0000000000000000  0.0000000000000000  0.0000000000000000  0.0000000000000000  0.0000000000000000  0.0000000000000000  0.0000000000000000  0.0000000000000000  0.0000000000000000  0.0000000000000000
  0.0000000000000000  0.0000000000000000  0.0000000000000000  0.0000000000000000  0.0000000000000000  0.0000000000000000  0.0000000000000000  0.0000000000000000  0.0000000000000000  0.0000000000000000  0.0000000000000000
  0.0000000000000000  0.0000000000000000  0.0000000000000000  0.0000000000000000  0.0000000000000000  0.0000000000000000  0.0000000000000000  0.0000000000000000  0.0000000000000000  0.0000000000000000  0.0000000000000000  0.0000000000000000
  0.0000000000000000  0.0000000000000000  0.0000000000000000  0.0000000000000000  0.0000000000000000  0.0000000000000000  0.0000000000000000  0.0000000000000000  0.0000000000000000  0.0000000000000000  0.0000000000000000  0.0000000000000000  0.0000000000000000
  0.0000000000000000  0.0000000000000000  0.0000000000000000  0.0000000000000000  0.0000000000000000  0.0000000000000000  0.0000000000000000  0.0000000000000000  0.0000000000000000  0.0000000000000000  0.0000000000000000  0.0000000000000000  0.0000000000000000  0.0000000000000000
  0.0000000000000000  0.0000000000000000  0.0000000000000000  0.0000000000000000  0.0000000000000000  0.0000000000000000  0.0000000000000000  0.0000000000000000  0.0000000000000000  0.0000000000000000  0.0000000000000000  0.0000000000000000  0.0000000000000000  0.0000000000000000  0.0000000000000000
  0.0000000000000000  0.0000000000000000  0.0000000000000000  0.0000000000000000  0.0000000000000000  0.0000000000000000  0.0000000000000000  0.0000000000000000  0.0000000000000000  0.0000000000000000  0.0000000000000000  0.0000000000000000  0.0000000000000000  0.0000000000000000  0.0000000000000000  0.0000000000000000
  0.0000000000000000  0.0000000000000000  0.0000000000000000  0.0000000000000000  0.0000000000000000  0.0000000000000000  0.0000000000000000  0.0000000000000000  0.0000000000000000  0.0000000000000000  0.0000000000000000  0.0000000000000000  0.0000000000000000  0.0000000000000000  0.0000000000000000  0.0000000000000000  0.0000000000000000
  0.0000000000000000  0.0000000000000000  0.0000000000000000  0.0000000000000000  0.0000000000000000  0.0000000000000000  0.0000000000000000  0.0000000000000000  0.0000000000000000  0.0000000000000000  0.0000000000000000  0.0000000000000000  0.0000000000000000  0.0000000000000000  0.0000000000000000  0.0000000000000000  0.0000000000000000  0.0000000000000000
  0.0000000000000000  0.0000000000000000  0.0000000000000000  0.0000000000000000  0.0000000000000000  0.0000000000000000  0.0000000000000000  0.0000000000000000  0.0000000000000000  0.0000000000000000  0.0000000000000000  0.0000000000000000  0.0000000000000000  0.0000000000000000  0.0000000000000000  0.0000000000000000  0.0000000000000000  0.0000000000000000  0.0000000000000000
  0.0000000000000000  0.0000000000000000  0.0000000000000000  0.0000000000000000  0.0000000000000000  0.0000000000000000  0.0000000000000000  0.0000000000000000  0.0000000000000000  0.0000000000000000  0.0000000000000000  0.0000000000000000  0.0000000000000000  0.0000000000000000  0.0000000000000000  0.0000000000000000  0.0000000000000000  0.0000000000000000  0.0000000000000000  0.0000000000000000
  0.0000000000000000  0.0000000000000000  0.0000000000000000  0.0000000000000000  0.0000000000000000  0.0000000000000000  0.0000000000000000  0.0000000000000000  0.0000000000000000  0.0000000000000000  0.0000000000000000  0.0000000000000000  0.0000000000000000  0.0000000000000000  0.0000000000000000  0.0000000000000000  0.0000000000000000  0.0000000000000000  0.0000000000000000  0.0000000000000000  0.0000000000000000
  0.0000000000000000  0.0000000000000000  0.0000000000000000  0.0000000000000000  0.0000000000000000  0.0000000000000000  0.0000000000000000  0.0000000000000000  0.0000000000000000  0.0000000000000000  0.0000000000000000  0.0000000000000000  0.0000000000000000  0.0000000000000000  0.0000000000000000  0.0000000000000000  0.0000000000000000  0.0000000000000000  0.0000000000000000  0.0000000000000000  0.0000000000000000  0.0000000000000000
  0.0000000000000000  0.0000000000000000  0.0000000000000000  0.0000000000000000  0.0000000000000000  0.0000000000000000  0.0000000000000000  0.0000000000000000  0.0000000000000000  0.0000000000000000  0.0000000000000000  0.0000000000000000  0.0000000000000000  0.0000000000000000  0.0000000000000000  0.0000000000000000  0.0000000000000000  0.0000000000000000  0.0000000000000000  0.0000000000000000  0.0000000000000000  0.0000000000000000  0.0000000000000000
  0.0000000000000000  0.0000000000000000  0.0000000000000000  0.0000000000000000  0.0000000000000000  0.0000000000000000  0.0000000000000000  0.0000000000000000  0.0000000000000000  0.0000000000000000  0.0000000000000000  0.0000000000000000  0.0000000000000000  0.0000000000000000  0.0000000000000000  0.0000000000000000  0.0000000000000000  0.0000000000000000  0.0000000000000000  0.0000000000000000  0.0000000000000000  0.0000000000000000  0.0000000000000000  0.0000000000000000
  0.0000000000000000  0.0000000000000000  0.0000000000000000  0.0000000000000000  0.0000000000000000  0.0000000000000000  0.0000000000000000  0.0000000000000000  0.0000000000000000  0.0000000000000000  0.0000000000000000  0.0000000000000000  0.0000000000000000  0.0000000000000000  0.0000000000000000  0.0000000000000000  0.0000000000000000  0.0000000000000000  0.0000000000000000  0.0000000000000000  0.0000000000000000  0.0000000000000000  0.0000000000000000  0.0000000000000000  0.0000000000000000
  0.0000000000000000  0.0000000000000000  0.0000000000000000  0.0000000000000000  0.0000000000000000  0.0000000000000000  0.0000000000000000  0.0000000000000000  0.0000000000000000  0.0000000000000000  0.0000000000000000  0.0000000000000000  0.0000000000000000  0.0000000000000000  0.0000000000000000  0.0000000000000000  0.0000000000000000  0.0000000000000000  0.0000000000000000  0.0000000000000000  0.0000000000000000  0.0000000000000000  0.0000000000000000  0.0000000000000000  0.0000000000000000  0.0000000000000000
  0.0000000000000000  0.0000000000000000  0.0000000000000000  0.0000000000000000  0.0000000000000000  0.0000000000000000  0.0000000000000000  0.0000000000000000  0.0000000000000000  0.0000000000000000  0.0000000000000000  0.0000000000000000  0.0000000000000000  0.0000000000000000  0.0000000000000000  0.0000000000000000  0.0000000000000000  0.0000000000000000  0.0000000000000000  0.0000000000000000  0.0000000000000000  0.0000000000000000  0.0000000000000000  0.0000000000000000  0.0000000000000000  0.0000000000000000  0.0000000000000000
  0.0000000000000000  0.0000000000000000  0.0000000000000000  0.0000000000000000  0.0000000000000000  0.0000000000000000  0.0000000000000000  0.0000000000000000  0.0000000000000000  0.0000000000000000  0.0000000000000000  0.0000000000000000  0.0000000000000000  0.0000000000000000  0.0000000000000000  0.0000000000000000  0.0000000000000000  0.0000000000000000  0.0000000000000000  0.0000000000000000  0.0000000000000000  0.0000000000000000  0.0000000000000000  0.0000000000000000  0.0000000000000000  0.0000000000000000  0.0000000000000000  0.0000000000000000
[...]
  0.0000000000000000  0.0000000000000000  0.0000000000000000  0.0000000000000000  0.0000000000000000  0.0000000000000000  0.0000000000000000  0.0000000000000000  0.0000000000000000  0.0000000000000002  0.0000000000000000  0.0000000000000000  0.0000000000000003  0.0000000000000000  0.0000000000000000  0.0000000000000001  0.0000000000000000  0.0000000000000000  0.0000000000000001  0.0000000000000000  0.0000000000000000  0.5309002053780623  0.0000000000000000  0.0000000000000000  0.2714369629503388  0.0000000000000000  0.0000000000000000  0.0412693638221033  0.0000000000000000  0.0000000000000000  0.0015321769499241  0.0000000000000000  0.0000000000000000  0.0000000000000000  0.0000000000000001  0.0000000000000000  0.0000000000000000  0.0000000000000000  0.0000000000000000 -0.0000000000000001  0.0000000000000000  0.0000000000000000  0.0000000000000000  0.0000000000000000  0.1213375195549332  0.0000000000000000  0.0000000000000000  0.0000000000000000  0.0000000000000000  0.2662283994401999  0.0000000000000000  0.0000000000000000  0.0000000000000000  0.0000000000000000  0.9999999999999997
  0.0000000000000000  0.0000000000000000  0.0000000000000000  0.0000000000000000  0.0000000000000000  0.0000000000000000  0.0000000000000000  0.0000000000000000  0.0000000000000000  0.0000000000000000  0.0000000000000000  0.0000000000000000  0.0000000000000000  0.0000000000000000  0.0000000000000000  0.0000000000000000  0.0000000000000000  0.0000000000000000  0.0000000000000000  0.0000000000000000  0.0000000000000000  0.0000000000000000  0.0000000000000000  0.0000000000000000  0.0000000000000000  0.0000000000000000  0.0000000000000000  0.0000000000000000  0.0000000000000000  0.0000000000000000  0.0000000000000000  0.0000000000000000  0.0000000000000000  0.0000000000000000  0.0000000000000000  0.0000000000000000  0.0000000000000000  0.0000000000000000  0.0000000000000000  0.0000000000000000  0.0000000000000000  0.0000000000000000  0.0000000000000000  0.0000000000000000  0.0000000000000000  0.5736776244481414  0.0000000000000000  0.0000000000000000  0.0000000000000000  0.0000000000000000  0.3820906886496864  0.0000000000000000  0.0000000000000000  0.0000000000000000  0.0000000000000000  1.0000000000000002
  0.0000000000000000  0.0000000000000000  0.0000000000000000  0.0000000000000000  0.0000000000000000 -0.0000000000000001  0.0000000000000000  0.0000000000000000  0.0000000000000000  0.0000000000000000  0.0000000000000000  0.0000000000000000  0.0000000000000000  0.0000000000000000  0.0000000000000000  0.0000000000000000 -0.0000000000000001  0.0000000000000000  0.0000000000000000  0.0000000000000000  0.0000000000000000  0.0000000000000000  0.0000000000000000  0.0000000000000000  0.0000000000000000  0.0000000000000000  0.0000000000000000  0.0000000000000000  0.0000000000000000  0.0000000000000000  0.0000000000000000  0.0000000000000000 -0.0000000000000000  0.0000000000000000  0.0000000000000000  0.0000000000000000  0.0000000000000000  0.0000000000000000  0.0000000000000000  0.0000000000000000  0.0000000000000000  0.0000000000000000 -0.0000000000000001  0.0000000000000000  0.0000000000000000  0.0000000000000000  0.5736776244481405 -0.0000000000000000  0.0000000000000000  0.0000000000000000  0.0000000000000000  0.3820906886496859 -0.0000000000000001  0.0000000000000000  0.0000000000000000  0.0000000000000000  0.9999999999999994
  0.0000000000000000  0.0000000000000000  0.0000000000000000  0.0000000000000000  0.0000000000000000  0.0000000000000000  0.0000000000000000  0.0000000000000000 -0.0000000000000001  0.0000000000000000  0.0000000000000000 -0.0000000000000003  0.0000000000000000  0.0000000000000000 -0.0000000000000001  0.0000000000000000  0.0000000000000000 -0.0000000000000001  0.0000000000000000  0.0000000000000000 -0.0000000000000001  0.0000000000000000  0.0000000000000000 -0.0000000000000002  0.0000000000000000  0.0000000000000000 -0.0000000000000001  0.0000000000000000  0.0000000000000000 -0.0000000000000001  0.0000000000000000  0.0000000000000000  0.0000000000000000  0.0000000000000000  0.0000000000000000  0.0000000000000000  0.0000000000000000  0.0000000000000000  0.0000000000000000  0.0000000000000000  0.0000000000000000  0.0000000000000000  0.0000000000000000  0.0000000000000002  0.0000000000000000  0.0000000000000000  0.0000000000000000  0.0000000000000000  0.0000000000000003  0.0000000000000000  0.0000000000000000  0.0000000000000000  0.0000000000000000 -0.0000000000000004  0.0000000000000000  0.0000000000000000  0.0000000000000000  0.9999999999999994
  0.0000000000000000  0.0000000000000000  0.0000000000000000  0.0000000000000000  0.0000000000000000  0.0000000000000000  0.0000000000000000  0.0000000000000000  0.0000000000000000 -0.0000000000000001  0.0000000000000000  0.0000000000000000 -0.0000000000000002  0.0000000000000000  0.0000000000000000 -0.0000000000000001  0.0000000000000000  0.0000000000000000 -0.0000000000000001  0.0000000000000000  0.0000000000000000 -0.0000000000000001  0.0000000000000000  0.0000000000000000 -0.0000000000000002  0.0000000000000000  0.0000000000000000 -0.0000000000000001  0.0000000000000000  0.0000000000000000 -0.0000000000000001  0.0000000000000000  0.0000000000000000  0.0000000000000000  0.0000000000000000  0.0000000000000000  0.0000000000000000  0.0000000000000000  0.0000000000000000  0.0000000000000000  0.0000000000000000  0.0000000000000000  0.0000000000000000  0.0000000000000000  0.0000000000000002  0.0000000000000000  0.0000000000000000  0.0000000000000000  0.0000000000000000  0.0000000000000003  0.0000000000000000  0.0000000000000000  0.0000000000000000  0.0000000000000000 -0.0000000000000004  0.0000000000000000  0.0000000000000000  0.0000000000000000  1.0000000000000000
 -0.3206582790226199 -0.0531041899838727 -0.0037124912040503 -0.0001551242068188 -0.0000000000000000 -0.0000000000000001  0.0000000000000001 -0.0000000000000001  0.0000000000000000  0.0000000000000000  0.2739732647014999  0.0000000000000000  0.0000000000000000  0.2163533153392057  0.0000000000000000  0.0000000000000000  0.0424061780867098  0.0000000000000000  0.0000000000000000  0.0017773303492764  0.0000000000000000  0.0000000000000000 -0.0000000000000002  0.0000000000000000  0.0000000000000000 -0.0000000000000006  0.0000000000000000  0.0000000000000000  0.0000000000000001  0.0000000000000000  0.0000000000000000 -0.0000000000000001 -0.1522822296237906  0.0000000000000000  0.0000000000000000  0.0000000000000000  0.0000000000000001 -0.2515915006362731  0.0000000000000000  0.0000000000000000  0.0000000000000000  0.0000000000000000 -0.0000000000000001  0.0000000000000000  0.0000000000000000  0.0000000000000000  0.0000000000000000 -0.0000000000000001  0.0000000000000000  0.0000000000000000  0.0000000000000000  0.0000000000000000 -0.2612948117328602  0.0000000000000000  0.0000000000000000  0.0000000000000000  0.0000000000000001  0.0000000000000000  0.0000000000000000  1.0000000000000009
  0.0000000000000000  0.0000000000000000  0.0000000000000000  0.0000000000000000  0.0000000000000000  0.0000000000000000  0.0000000000000000  0.0000000000000000  0.5309002053780623  0.0000000000000000  0.0000000000000000  0.2714369629503389  0.0000000000000000  0.0000000000000000  0.0412693638221033  0.0000000000000000  0.0000000000000000  0.0015321769499241  0.0000000000000000  0.0000000000000000  0.0000000000000002  0.0000000000000000  0.0000000000000000  0.0000000000000004  0.0000000000000000  0.0000000000000000  0.0000000000000000  0.0000000000000000  0.0000000000000000  0.0000000000000001  0.0000000000000000  0.0000000000000000  0.0000000000000000 -0.1213375195549332  0.0000000000000000  0.0000000000000000  0.0000000000000000  0.0000000000000000 -0.2662283994401999  0.0000000000000000  0.0000000000000000  0.0000000000000000  0.0000000000000000 -0.0000000000000001  0.0000000000000000  0.0000000000000000  0.0000000000000000  0.0000000000000000  0.0000000000000001  0.0000000000000000  0.0000000000000000  0.0000000000000000  0.0000000000000000 -0.2260648710951060  0.0000000000000000  0.0000000000000000  0.0000000000000000 -0.0000000000000003  0.0000000000000000  0.0000000000000000  0.9999999999999996
  0.0000000000000000  0.0000000000000000  0.0000000000000000  0.0000000000000000  0.0000000000000000  0.0000000000000000  0.0000000000000000  0.0000000000000000  0.0000000000000000  0.5309002053780623  0.0000000000000000  0.0000000000000000  0.2714369629503388  0.0000000000000000  0.0000000000000000  0.0412693638221033  0.0000000000000000  0.0000000000000000  0.0015321769499241  0.0000000000000000  0.0000000000000000  0.0000000000000002  0.0000000000000000  0.0000000000000000  0.0000000000000003  0.0000000000000000  0.0000000000000000  0.0000000000000001  0.0000000000000000  0.0000000000000000  0.0000000000000001  0.0000000000000000  0.0000000000000000  0.0000000000000000 -0.1213375195549332  0.0000000000000000  0.0000000000000000  0.0000000000000000  0.0000000000000000 -0.2662283994401999  0.0000000000000000  0.0000000000000000  0.0000000000000000  0.0000000000000000 -0.0000000000000001  0.0000000000000000  0.0000000000000000  0.0000000000000000  0.0000000000000000  0.0000000000000001  0.0000000000000000  0.0000000000000000  0.0000000000000000  0.0000000000000000 -0.2260648710951060  0.0000000000000000  0.0000000000000000  0.0000000000000000 -0.0000000000000003  0.0000000000000000  0.0000000000000000  0.9999999999999997
  0.0000000000000000  0.0000000000000000  0.0000000000000000  0.0000000000000000  0.0000000000000000  0.0000000000000000  0.0000000000000000  0.0000000000000000  0.0000000000000000  0.0000000000000000  0.0000000000000000  0.0000000000000000  0.0000000000000000  0.0000000000000000  0.0000000000000000  0.0000000000000000  0.0000000000000000  0.0000000000000000  0.0000000000000000  0.0000000000000000  0.0000000000000000  0.0000000000000000  0.0000000000000000  0.0000000000000000  0.0000000000000000  0.0000000000000000  0.0000000000000000  0.0000000000000000  0.0000000000000000  0.0000000000000000  0.0000000000000000  0.0000000000000000  0.0000000000000000  0.0000000000000000  0.0000000000000000 -0.5736776244481414  0.0000000000000000  0.0000000000000000  0.0000000000000000  0.0000000000000000 -0.3820906886496864  0.0000000000000000  0.0000000000000000  0.0000000000000000  0.0000000000000000  0.0000000000000000  0.0000000000000000  0.0000000000000000  0.0000000000000000  0.0000000000000000  0.0000000000000000  0.0000000000000000  0.0000000000000000  0.0000000000000000  0.0000000000000000 -0.1974403040519440  0.0000000000000000  0.0000000000000000  0.0000000000000000  0.0000000000000000  0.0000000000000000  0.0000000000000000  1.0000000000000002
  0.0000000000000000  0.0000000000000001  0.0000000000000000  0.0000000000000000  0.0000000000000000  0.0000000000000000  0.0000000000000000  0.0000000000000000  0.0000000000000000  0.0000000000000000  0.0000000000000000  0.0000000000000000  0.0000000000000000  0.0000000000000000  0.0000000000000000  0.0000000000000000  0.0000000000000000  0.0000000000000000  0.0000000000000000  0.0000000000000000  0.0000000000000000  0.0000000000000000  0.0000000000000000  0.0000000000000000  0.0000000000000000  0.0000000000000000  0.0000000000000000  0.0000000000000000 -0.0000000000000001  0.0000000000000000  0.0000000000000000  0.0000000000000000  0.0000000000000001  0.0000000000000000  0.0000000000000000  0.0000000000000000 -0.5736776244481405  0.0000000000000000  0.0000000000000000  0.0000000000000000  0.0000000000000000 -0.3820906886496859  0.0000000000000000  0.0000000000000000  0.0000000000000000  0.0000000000000000  0.0000000000000000  0.0000000000000000  0.0000000000000000  0.0000000000000000  0.0000000000000000  0.0000000000000000  0.0000000000000000  0.0000000000000000  0.0000000000000000  0.0000000000000000 -0.1974403040519438  0.0000000000000000  0.0000000000000000 -0.0000000000000001  0.0000000000000000  0.0000000000000000  0.0000000000000000  0.9999999999999994
  0.0000000000000000  0.0000000000000000  0.0000000000000000  0.0000000000000000  0.0000000000000000  0.0000000000000000  0.0000000000000000  0.0000000000000000 -0.0000000000000001  0.0000000000000000  0.0000000000000000 -0.0000000000000002  0.0000000000000000  0.0000000000000000 -0.0000000000000001  0.0000000000000000  0.0000000000000000 -0.0000000000000001  0.0000000000000000  0.0000000000000000 -0.0000000000000001  0.0000000000000000  0.0000000000000000 -0.0000000000000003  0.0000000000000000  0.0000000000000000 -0.0000000000000001  0.0000000000000000  0.0000000000000000 -0.0000000000000001  0.0000000000000000  0.0000000000000000  0.0000000000000000 -0.0000000000000002  0.0000000000000000  0.0000000000000000  0.0000000000000000  0.0000000000000000 -0.0000000000000003  0.0000000000000000  0.0000000000000000  0.0000000000000000  0.0000000000000000  0.0000000000000000  0.0000000000000000  0.0000000000000000  0.0000000000000000  0.0000000000000000  0.0000000000000000  0.0000000000000000  0.0000000000000000  0.0000000000000000  0.0000000000000000 -0.0000000000000003  0.0000000000000000  0.0000000000000000  0.0000000000000000  0.4973307406849974  0.0000000000000000  0.0000000000000000 -0.0000000000000004  0.0000000000000000  0.0000000000000000  0.0000000000000000  0.9999999999999994
  0.0000000000000000  0.0000000000000000  0.0000000000000000  0.0000000000000000  0.0000000000000000  0.0000000000000000  0.0000000000000000  0.0000000000000000  0.0000000000000000 -0.0000000000000001  0.0000000000000000  0.0000000000000000 -0.0000000000000002  0.0000000000000000  0.0000000000000000 -0.0000000000000001  0.0000000000000000  0.0000000000000000 -0.0000000000000001  0.0000000000000000  0.0000000000000000 -0.0000000000000001  0.0000000000000000  0.0000000000000000 -0.0000000000000002  0.0000000000000000  0.0000000000000000 -0.0000000000000001  0.0000000000000000  0.0000000000000000 -0.0000000000000001  0.0000000000000000  0.0000000000000000  0.0000000000000000 -0.0000000000000002  0.0000000000000000  0.0000000000000000  0.0000000000000000  0.0000000000000000 -0.0000000000000003  0.0000000000000000  0.0000000000000000  0.0000000000000000  0.0000000000000000  0.0000000000000000  0.0000000000000000  0.0000000000000000  0.0000000000000000  0.0000000000000000  0.0000000000000000  0.0000000000000000  0.0000000000000000  0.0000000000000000  0.0000000000000000 -0.0000000000000003  0.0000000000000000  0.0000000000000000  0.0000000000000000  0.4973307406849972  0.0000000000000000  0.0000000000000000 -0.0000000000000004  0.0000000000000000  0.0000000000000000  0.0000000000000000  1.0000000000000000
 END


 total number of electrons =     1.00000000000000

 => charge of molecule     =     1.00000000000000




------------------------------------------------------------------------

   Population Analysis Based On Occupation Numbers (PABOON)

------------------------------------------------------------------------

 
 CHOICE OF MAOs:
MAOs are selected due to their eigenvalues; determination of their number: 
 automatic; mixing options fix and eigenvalue thr=0.1
 
 ... and this is your MAO selection:
 (atoms for which the two selection methods (fixed/threshold) yield
 different numbers of MAOs are marked by an *)
 
   atom   nr. of MAOs      selection criterion
    1 h          1               eig
    2 h          1               eig
 


************************************************************************
*                                                                      *
*                     unassigned charge =  -0.000000                   *
*                                                                      *
************************************************************************



************************************************************************
*                                                                      *
*                       hypervalent contributions                      *
*                                                                      *
************************************************************************

              h    1           -0.000000
              h    2           -0.000000


************************************************************************
*                                                                      *
*                        shared electron numbers                       *
*                                                                      *
************************************************************************



 TWO center shared electron numbers ge 0.1000E-01 :

  shared electron number for the pair       1 h  -   2 h   =     0.8340


************************************************************************
*                                                                      *
*              atomic charges with multicenter corrections             *
*              AS RESULTING FROM 2-CENTER SEN CONTRIBUTIONS            *
*                                                                      *
************************************************************************

                        -------------------------
                           atom   |     charge   
                        -------------------------
                            1 h   |    0.5000
                            2 h   |    0.5000
                        -------------------------


************************************************************************
*                                                                      *
*              atomic charges with multicenter corrections             *
*                                                                      *
************************************************************************

                        -------------------------
                           atom   |     charge   
                        -------------------------
                            1 h   |    0.5000
                            2 h   |    0.5000
                        -------------------------

 
 moments (from total density versus population analysis)
 <charge> =             1.000000            1.000000
 <xx  >   =            -0.423813            0.000000
 <yy  >   =            -0.423813            0.000000
 <zz  >   =            -0.020391            0.250000
 <xy  >   =             0.000000            0.000000
 <xz  >   =            -0.000000            0.000000
 <yz  >   =            -0.000000            0.000000

 
 
 ==============================================================================
                      CALCULATION OF QUANTITIES ON GRID
 ==============================================================================
 
 
 output format: v1,v2,f(v1,v2)
 output format: v1,v2,f(v1,v2)
 Reasonable settings for gnuplot contour plots are in file 'gnuset'.
 Call gnuplot and use it by typing: 'load "gnuset"'
 ... and then follow further instructions ...
 
 
 quantities to be calculated are 
 density                     file: ..d.vec
 
 calculation at a plane of  500*  201 points
 
 origin at            0.00000        0.00000        0.00000
 
 normalised grid vectors:
                        x              y              z
  1. vector:         0.00000        0.00000        1.00000
  2. vector:         0.00000        1.00000        0.00000
 
                     minimum       increment       maximum
  1. vector:        -8.00000        0.03206        8.00000
  2. vector:        -5.00000        0.05000        5.00000
 
 
 ==============================================================================
 


    ------------------------------------------------------------------------
         total  cpu-time :   3.26 seconds
         total wall-time :   3.97 seconds
    ------------------------------------------------------------------------


   ****  dscf : all done  ****


    2015-03-28 18:36:55.955 

