 operating system is UNIX !
 hostname is         gplogin1.local

 dscf (gplogin1.local) : TURBOMOLE V6.6( ) 18 Mar 2015 at 17:33:10
 Copyright (C) 2015 TURBOMOLE GmbH, Karlsruhe


    2015-03-30 13:14:24.372 



                             d s c f - program

                   idea & directorship : reinhart ahlrichs
                   program development : marco haeser
                                         michael baer
                           dft version : oliver treutler


                          quantum chemistry group
                          universitaet  karlsruhe
                                  germany




                          References             
                                                 
          TURBOMOLE:                             
              R. Ahlrichs, M. Baer, M. Haeser, H. Horn, and
              C. Koelmel
              Electronic structure calculations on workstation
              computers: the program system TURBOMOLE
              Chem. Phys. Lett. 162: 165 (1989)
          Density Functional:                              
              O. Treutler and R. Ahlrichs                      
              Efficient Molecular Numerical Integration Schemes
              J. Chem. Phys. 102: 346 (1995)                   
          Parallel Version:                                
              Performance of parallel TURBOMOLE for Density    
              Functional Calculations                          
              M. v. Arnim and R. Ahlrichs                      
              J. Comp. Chem. 19: 1746 (1998)                   
                                         



 UHF mode switched on !


              +--------------------------------------------------+
              | Atomic coordinate, charge and isotop information |
              +--------------------------------------------------+

                    atomic coordinates            atom    charge  isotop
          0.00000000    0.00000000   -0.50000000    h      1.000     0
          0.00000000    0.00000000    0.50000000    h      1.000     0
 
       center of nuclear mass  :    0.00000000    0.00000000    0.00000000
       center of nuclear charge:    0.00000000    0.00000000    0.00000000

   *************************************************************************
   h-h/1.0                                                                  
   *************************************************************************



              +--------------------------------------------------+
              |               basis set information              |
              +--------------------------------------------------+

              we will work with the 1s 3p 5d 7f 9g ... basis set
              ...i.e. with spherical basis functions...

   type   atoms  prim   cont   basis
   ---------------------------------------------------------------------------
    h        2      4      2   def2-SV(P)   [2s|4s]
   ---------------------------------------------------------------------------
   total:    2      8      4
   ---------------------------------------------------------------------------

   total number of primitive shells          :    4
   total number of contracted shells         :    4
   total number of cartesian basis functions :    4
   total number of SCF-basis functions       :    4


 integral neglect threshold       :  0.83E-10
 integral storage threshold THIZE :  0.10E-04
 integral storage threshold THIME :         5


 symmetry group of the molecule :   c1 

 the group has the following generators :
   c1(z)

    1 symmetry operations found

 there are 1 real representations :   a   

 maximum number of shells which are related by symmetry :  1

  missing beta occupation number declaration 

    mo occupation :
   irrep   mo's   occupied
    a        4        1
 
 number of basis functions   :            4
 number of occupied orbitals :            1
 

          ------------------------
          nuclear repulsion energy  :   1.00000000000    
          ------------------------

 
          -----------------
          -S,T+V- integrals
          -----------------

 1e-integrals will be neglected if expon. factor < 0.835490E-11
 
   Difference densities algorithm switched on.
   The maximal number of linear combinations of
   difference densities is          20 .

 automatic virtual orbital shift switched on 
      shift if e(lumo)-e(homo) < 0.10000000    


 DIIS switched on: error vector is FDS-SDF
 Max. Iterations for DIIS is     :   5
 DIIS matrix (see manual) 
    Scaling factor of diagonals  :  1.200
    threshold for scaling factor :  0.000

 scf convergence criterion : increment of total energy < .1000000D-07
                  and increment of one-electron energy < .1000000D-04


 <geterg> : there is no data group $energy 

  MOs are in ASCII format !


 reading orbital data $uhfmo_alpha  from file alpha . 

 orbital characterization : expanded
 

 reading orbital data $uhfmo_beta  from file beta . 

 orbital characterization : expanded
 
 mo provided and orthogonalized by Cholesky decomposition
 mo provided and orthogonalized by Cholesky decomposition

 DSCF restart information will be dumped onto file alpha

 
                                              current damping :  1.000
 ITERATION  ENERGY          1e-ENERGY        2e-ENERGY     NORM[dD(SAO)]  TOL
   1  -.28775949838897    -1.2877594984    0.52041704279E-170.000D+00 0.833D-10
          max. resid. norm for Fia-block=  3.557D-01 for orbital      1a    alpha
          max. resid. fock norm         =  4.209D-01 for orbital      2a    alpha
          Delta Eig. =    29.8593968275 eV 
 
                                              current damping :  0.950
 ITERATION  ENERGY          1e-ENERGY        2e-ENERGY     NORM[dD(SAO)]  TOL
   2  -.34649979950966    -1.3464997995     0.0000000000    0.125D+00 0.503D-10
          Norm of current diis error: 0.36090    
          max. resid. norm for Fia-block=  3.025D-01 for orbital      1a    alpha
          max. resid. fock norm         =  3.025D-01 for orbital      1a    alpha
          Delta Eig. =    14.9981075382 eV 
 
                                              current damping :  0.900
 ITERATION  ENERGY          1e-ENERGY        2e-ENERGY     NORM[dD(SAO)]  TOL
   3  -.39154424549653    -1.3915442455    0.69388939039E-170.359D-01 0.340D-10
          Norm of current diis error: 0.24436    
          max. resid. norm for Fia-block=  2.366D-01 for orbital      1a    alpha
          max. resid. fock norm         =  2.366D-01 for orbital      1a    alpha
          Delta Eig. =     7.1880014261 eV 
 
                                              current damping :  0.950
 ITERATION  ENERGY          1e-ENERGY        2e-ENERGY     NORM[dD(SAO)]  TOL
   4  -.41594478316894    -1.4159447832    -.69388939039E-170.110D-14 0.268D-10
          Norm of current diis error: 0.13660    
          max. resid. norm for Fia-block=  1.396D-01 for orbital      1a    alpha
          max. resid. fock norm         =  1.396D-01 for orbital      1a    alpha
          Delta Eig. =     3.2896206769 eV 
 
                                              current damping :  0.800
 ITERATION  ENERGY          1e-ENERGY        2e-ENERGY     NORM[dD(SAO)]  TOL
   5  -.42377082943227    -1.4237708294    -.34694469520E-160.789D-15 0.238D-10
          Norm of current diis error: 0.71207E-01
          max. resid. norm for Fia-block=  7.356D-02 for orbital      1a    alpha
          max. resid. fock norm         =  7.356D-02 for orbital      1a    alpha
 mo-orthogonalization: Cholesky decomposition
          Delta Eig. =     1.7496667942 eV 
 
                                              current damping :  0.650
 ITERATION  ENERGY          1e-ENERGY        2e-ENERGY     NORM[dD(SAO)]  TOL
   6  -.42604117939668    -1.4260411794    -.65919492087E-160.279D-14 0.222D-10
          Norm of current diis error: 0.33012E-01
          max. resid. norm for Fia-block=  3.403D-02 for orbital      1a    alpha
          max. resid. fock norm         =  3.403D-02 for orbital      1a    alpha
          Delta Eig. =     0.8604821627 eV 
 
                                              current damping :  0.500
 ITERATION  ENERGY          1e-ENERGY        2e-ENERGY     NORM[dD(SAO)]  TOL
   7  -.42655713965119    -1.4265571397    -.83266726847E-160.273D-15 0.214D-10
          Norm of current diis error: 0.13519E-01
          max. resid. norm for Fia-block=  1.394D-02 for orbital      1a    alpha
          max. resid. fock norm         =  1.394D-02 for orbital      1a    alpha
          Delta Eig. =     0.3772654581 eV 
 
                                              current damping :  0.350
 ITERATION  ENERGY          1e-ENERGY        2e-ENERGY     NORM[dD(SAO)]  TOL
   8  -.42664853916335    -1.4266485392    -.93675067703E-160.204D-15 0.212D-10
          Norm of current diis error: 0.46911E-02
          max. resid. norm for Fia-block=  4.842D-03 for orbital      1a    alpha
          max. resid. fock norm         =  4.842D-03 for orbital      1a    alpha
          Delta Eig. =     0.1408917379 eV 
 
                                              current damping :  0.200
 ITERATION  ENERGY          1e-ENERGY        2e-ENERGY     NORM[dD(SAO)]  TOL
   9  -.42666012225163    -1.4266601223    -.12143064332E-150.194D-14 0.198D-10
          Norm of current diis error: 0.12766E-02
          max. resid. norm for Fia-block=  1.319D-03 for orbital      1a    alpha
          max. resid. fock norm         =  1.319D-03 for orbital      1a    alpha
          Delta Eig. =     0.0412890610 eV 
 subr. ddmat can not establish optimal linear combination of delta densities !
 next fock matrix will be calculated from scratch !
 
                                              current damping :  0.250
 ITERATION  ENERGY          1e-ENERGY        2e-ENERGY     NORM[dD(SAO)]  TOL
  10  -.42666101874155    -1.4266610187    -.41633363423E-160.194D-14 0.833D-10
          Norm of current diis error: 0.22924E-03
          max. resid. norm for Fia-block=  2.372D-04 for orbital      1a    alpha
          max. resid. fock norm         =  2.372D-04 for orbital      1a    alpha
 mo-orthogonalization: Cholesky decomposition
          Delta Eig. =     0.0066164543 eV 
 
                                              current damping :  0.300
 ITERATION  ENERGY          1e-ENERGY        2e-ENERGY     NORM[dD(SAO)]  TOL
  11  -.42666104727918    -1.4266610473    -.41633363423E-160.145D-03 0.528D-10
          Norm of current diis error: 0.48449E-04
          max. resid. norm for Fia-block=  5.013D-05 for orbital      1a    alpha
          max. resid. fock norm         =  5.013D-05 for orbital      1a    alpha
          Delta Eig. =     0.0012707401 eV 

 ENERGY CONVERGED !

 
                                              current damping :  0.350
 ITERATION  ENERGY          1e-ENERGY        2e-ENERGY     NORM[dD(SAO)]  TOL
  12  -.42666104853552    -1.4266610485    0.33095054475E-130.547D-08 0.432D-10
          max. resid. norm for Fia-block=  9.046D-06 for orbital      1a    alpha
          max. resid. fock norm         =  9.046D-06 for orbital      1a    alpha
 Density matrix in CAO:
 
 Print from pmat
 
 Lower triangle of alpha RDM in AO basis:
  0.2890335272999189
 -0.0013266548342096  0.0000060893041218
  0.2890335272999189 -0.0013266548342096  0.2890335272999189
 -0.0013266548342094  0.0000060893041218 -0.0013266548342094  0.0000060893041218
 END
 
 Lower triangle of beta RDM in AO basis:
  0.0000000000000000
  0.0000000000000000  0.0000000000000000
  0.0000000000000000  0.0000000000000000  0.0000000000000000
  0.0000000000000000  0.0000000000000000  0.0000000000000000  0.0000000000000000
 END

 convergence criteria satisfied after 12 iterations


   *************************************************************************
   h-h/1.0                                                                  
   *************************************************************************


                  ------------------------------------------ 
                 |  total energy      =     -0.42666104854  |
                  ------------------------------------------ 
                 :  kinetic energy    =      0.83454611708  :
                 :  potential energy  =     -1.26120716562  :
                 :  virial theorem    =      2.95599321744  :
                 :  wavefunction norm =      1.00000000000  :
                  .......................................... 


 <geterg> : there is no data group $energy 


 <skperg> : $end is missing 


 orbitals $uhfmo_beta  will be written to file beta

 orbitals $uhfmo_alpha  will be written to file alpha
 
 alpha: 

    irrep                  1a          2a          3a          4a   
 eigenvalues H         -1.42666    -0.14735    -0.00018     0.66692
            eV         -38.8217     -4.0097     -0.0050     18.1479
 occupation              1.0000 
 
 beta:  

    irrep                  1a          2a          3a          4a   
 eigenvalues H         -0.62305    -0.10040     0.06996     0.82661
            eV         -16.9541     -2.7319      1.9036     22.4935
 

                                             _ _ _ 
  IRREP     alpha occ.     beta occ.      tr(D*D-D)


 a          1.00000000     0.00000000    -0.25000000

   -------------------------------------------------

   sum      1.00000000     0.00000000    -0.25000000

 <S*S>     0.75000000

 
 
 
 ==============================================================================
                           electrostatic moments
 ==============================================================================
 
              nuc           elec       ->  total
 ------------------------------------------------------------------------------
                          charge      
 ------------------------------------------------------------------------------
           2.000000      -1.000000       1.000000
 a-b                                     1.000000
 
 ------------------------------------------------------------------------------
                       dipole moment  
 ------------------------------------------------------------------------------
   x       0.000000       0.000000       0.000000
   y       0.000000       0.000000       0.000000
   z       0.000000      -0.000000      -0.000000
 
   | dipole moment | =     0.0000 a.u. =     0.0000 debye 
 
 ------------------------------------------------------------------------------
                     quadrupole moment
 ------------------------------------------------------------------------------
  xx       0.000000      -0.441508      -0.441508
  yy       0.000000      -0.441508      -0.441508
  zz       0.500000      -0.596336      -0.096336
  xy       0.000000       0.000000       0.000000
  xz       0.000000       0.000000       0.000000
  yz       0.000000       0.000000       0.000000
 
     1/3  trace=      -0.326451
     anisotropy=       0.345172

 CONSTRUCTING NATURAL ORBITALS ...

 Print overlap matrix
  1.0000000000000004
  0.6847998247453734  1.0000000000000002
  0.7418488567700644  0.6209420357272180  1.0000000000000004
  0.6209420357272180  0.9408469394119157  0.6847998247453734  1.0000000000000002
 END


 total number of electrons =     1.00000000000000

 => charge of molecule     =     1.00000000000000




------------------------------------------------------------------------

   Population Analysis Based On Occupation Numbers (PABOON)

------------------------------------------------------------------------

 
 CHOICE OF MAOs:
MAOs are selected due to their eigenvalues; determination of their number: 
 automatic; mixing options fix and eigenvalue thr=0.1
 
 ... and this is your MAO selection:
 (atoms for which the two selection methods (fixed/threshold) yield
 different numbers of MAOs are marked by an *)
 
   atom   nr. of MAOs      selection criterion
    1 h          1               eig
    2 h          1               eig
 


************************************************************************
*                                                                      *
*                     unassigned charge =  -0.000000                   *
*                                                                      *
************************************************************************



************************************************************************
*                                                                      *
*                       hypervalent contributions                      *
*                                                                      *
************************************************************************

              h    1           -0.000000
              h    2           -0.000000


************************************************************************
*                                                                      *
*                        shared electron numbers                       *
*                                                                      *
************************************************************************



 TWO center shared electron numbers ge 0.1000E-01 :

  shared electron number for the pair       1 h  -   2 h   =     0.7408


************************************************************************
*                                                                      *
*              atomic charges with multicenter corrections             *
*              AS RESULTING FROM 2-CENTER SEN CONTRIBUTIONS            *
*                                                                      *
************************************************************************

                        -------------------------
                           atom   |     charge   
                        -------------------------
                            1 h   |    0.5000
                            2 h   |    0.5000
                        -------------------------


************************************************************************
*                                                                      *
*              atomic charges with multicenter corrections             *
*                                                                      *
************************************************************************

                        -------------------------
                           atom   |     charge   
                        -------------------------
                            1 h   |    0.5000
                            2 h   |    0.5000
                        -------------------------

 
 moments (from total density versus population analysis)
 <charge> =             1.000000            1.000000
 <xx  >   =            -0.441508            0.000000
 <yy  >   =            -0.441508            0.000000
 <zz  >   =            -0.096336            0.250000
 <xy  >   =             0.000000            0.000000
 <xz  >   =             0.000000            0.000000
 <yz  >   =             0.000000            0.000000

 
 
 ==============================================================================
                      CALCULATION OF QUANTITIES ON GRID
 ==============================================================================
 
 
 output format: v1,v2,f(v1,v2)
 output format: v1,v2,f(v1,v2)
 Reasonable settings for gnuplot contour plots are in file 'gnuset'.
 Call gnuplot and use it by typing: 'load "gnuset"'
 ... and then follow further instructions ...
 
 
 quantities to be calculated are 
 density                     file: ..d.vec
 
 calculation at a plane of  500*  201 points
 
 origin at            0.00000        0.00000        0.00000
 
 normalised grid vectors:
                        x              y              z
  1. vector:         0.00000        0.00000        1.00000
  2. vector:         0.00000        1.00000        0.00000
 
                     minimum       increment       maximum
  1. vector:        -8.00000        0.03206        8.00000
  2. vector:        -5.00000        0.05000        5.00000
 
 
 ==============================================================================
 


    ------------------------------------------------------------------------
         total  cpu-time :   0.71 seconds
         total wall-time :   1.53 seconds
    ------------------------------------------------------------------------


   ****  dscf : all done  ****


    2015-03-30 13:14:25.900 

